/*--------------------------------*- C++ -*----------------------------------*\
| =========                 |                                                 |
| \\      /  F ield         | OpenFOAM: The Open Source CFD Toolbox           |
|  \\    /   O peration     | Version:  v2012                                 |
|   \\  /    A nd           | Website:  www.openfoam.com                      |
|    \\/     M anipulation  |                                                 |
\*---------------------------------------------------------------------------*/
FoamFile
{
    version     2.0;
    format      ascii;
    class       volVectorField;
    location    "8";
    object      U;
}
// * * * * * * * * * * * * * * * * * * * * * * * * * * * * * * * * * * * * * //

dimensions      [0 1 -1 0 0 0 0];


internalField   nonuniform List<vector> 
400
(
(-2.73826e-11 -2.73826e-11 0)
(-1.46639e-12 -2.89511e-11 0)
(-1.50957e-12 -3.05989e-11 0)
(-1.51857e-12 -3.22992e-11 0)
(-1.47873e-12 -3.40083e-11 0)
(-1.37478e-12 -3.56624e-11 0)
(-1.19415e-12 -3.71765e-11 0)
(-9.31764e-13 -3.84492e-11 0)
(-5.94719e-13 -3.93749e-11 0)
(-2.04658e-13 -3.98638e-11 0)
(2.04658e-13 -3.98638e-11 0)
(5.94719e-13 -3.93749e-11 0)
(9.31764e-13 -3.84492e-11 0)
(1.19415e-12 -3.71765e-11 0)
(1.37478e-12 -3.56624e-11 0)
(1.47873e-12 -3.40083e-11 0)
(1.51857e-12 -3.22992e-11 0)
(1.50957e-12 -3.05989e-11 0)
(1.46639e-12 -2.89511e-11 0)
(2.73826e-11 -2.73826e-11 0)
(-2.89511e-11 -1.46639e-12 0)
(-1.7499e-12 -1.7499e-12 0)
(-1.83857e-12 -2.08876e-12 0)
(-1.89085e-12 -2.48683e-12 0)
(-1.88449e-12 -2.94161e-12 0)
(-1.79341e-12 -3.43935e-12 0)
(-1.59258e-12 -3.94971e-12 0)
(-1.26655e-12 -4.42299e-12 0)
(-8.19894e-13 -4.79469e-12 0)
(-2.84281e-13 -5.00091e-12 0)
(2.84281e-13 -5.00091e-12 0)
(8.19894e-13 -4.79469e-12 0)
(1.26655e-12 -4.42299e-12 0)
(1.59258e-12 -3.94971e-12 0)
(1.79341e-12 -3.43935e-12 0)
(1.88449e-12 -2.94161e-12 0)
(1.89085e-12 -2.48683e-12 0)
(1.83857e-12 -2.08876e-12 0)
(1.7499e-12 -1.7499e-12 0)
(2.89511e-11 -1.46639e-12 0)
(-3.05989e-11 -1.50957e-12 0)
(-2.08876e-12 -1.83857e-12 0)
(-2.2465e-12 -2.2465e-12 0)
(-2.37142e-12 -2.74613e-12 0)
(-2.43126e-12 -3.34424e-12 0)
(-2.38288e-12 -4.03293e-12 0)
(-2.17779e-12 -4.77721e-12 0)
(-1.77675e-12 -5.50328e-12 0)
(-1.17264e-12 -6.09871e-12 0)
(-4.10874e-13 -6.43894e-12 0)
(4.10874e-13 -6.43894e-12 0)
(1.17264e-12 -6.09871e-12 0)
(1.77675e-12 -5.50328e-12 0)
(2.17779e-12 -4.77721e-12 0)
(2.38288e-12 -4.03293e-12 0)
(2.43126e-12 -3.34424e-12 0)
(2.37142e-12 -2.74613e-12 0)
(2.2465e-12 -2.2465e-12 0)
(2.08876e-12 -1.83857e-12 0)
(3.05989e-11 -1.50957e-12 0)
(-3.22992e-11 -1.51857e-12 0)
(-2.48683e-12 -1.89085e-12 0)
(-2.74613e-12 -2.37142e-12 0)
(-2.9886e-12 -2.9886e-12 0)
(-3.17128e-12 -3.7693e-12 0)
(-3.22638e-12 -4.72629e-12 0)
(-3.06293e-12 -5.83347e-12 0)
(-2.58805e-12 -6.99081e-12 0)
(-1.75556e-12 -8.00055e-12 0)
(-6.24508e-13 -8.60344e-12 0)
(6.24508e-13 -8.60344e-12 0)
(1.75556e-12 -8.00055e-12 0)
(2.58805e-12 -6.99081e-12 0)
(3.06293e-12 -5.83347e-12 0)
(3.22638e-12 -4.72629e-12 0)
(3.17128e-12 -3.7693e-12 0)
(2.9886e-12 -2.9886e-12 0)
(2.74613e-12 -2.37142e-12 0)
(2.48683e-12 -1.89085e-12 0)
(3.22992e-11 -1.51857e-12 0)
(-3.40083e-11 -1.47873e-12 0)
(-2.94161e-12 -1.88449e-12 0)
(-3.34424e-12 -2.43126e-12 0)
(-3.7693e-12 -3.17128e-12 0)
(-4.16895e-12 -4.16895e-12 0)
(-4.44705e-12 -5.4887e-12 0)
(-4.44231e-12 -7.15639e-12 0)
(-3.94383e-12 -9.07488e-12 0)
(-2.78527e-12 -1.09102e-11 0)
(-1.01376e-12 -1.20848e-11 0)
(1.01376e-12 -1.20848e-11 0)
(2.78527e-12 -1.09102e-11 0)
(3.94383e-12 -9.07488e-12 0)
(4.44231e-12 -7.15639e-12 0)
(4.44705e-12 -5.4887e-12 0)
(4.16895e-12 -4.16895e-12 0)
(3.7693e-12 -3.17128e-12 0)
(3.34424e-12 -2.43126e-12 0)
(2.94161e-12 -1.88449e-12 0)
(3.40083e-11 -1.47873e-12 0)
(-3.56624e-11 -1.37478e-12 0)
(-3.43935e-12 -1.79341e-12 0)
(-4.03293e-12 -2.38288e-12 0)
(-4.72629e-12 -3.22638e-12 0)
(-5.4887e-12 -4.44705e-12 0)
(-6.21382e-12 -6.21382e-12 0)
(-6.64911e-12 -8.71163e-12 0)
(-6.34185e-12 -1.1996e-11 0)
(-4.76547e-12 -1.56189e-11 0)
(-1.79911e-12 -1.82286e-11 0)
(1.79911e-12 -1.82286e-11 0)
(4.76547e-12 -1.56189e-11 0)
(6.34185e-12 -1.1996e-11 0)
(6.64911e-12 -8.71163e-12 0)
(6.21382e-12 -6.21382e-12 0)
(5.4887e-12 -4.44705e-12 0)
(4.72629e-12 -3.22638e-12 0)
(4.03293e-12 -2.38288e-12 0)
(3.43935e-12 -1.79341e-12 0)
(3.56624e-11 -1.37478e-12 0)
(-3.71765e-11 -1.19415e-12 0)
(-3.94971e-12 -1.59258e-12 0)
(-4.77721e-12 -2.17779e-12 0)
(-5.83347e-12 -3.06293e-12 0)
(-7.15639e-12 -4.44231e-12 0)
(-8.71163e-12 -6.64911e-12 0)
(-1.02245e-11 -1.02245e-11 0)
(-1.08511e-11 -1.58669e-11 0)
(-9.0179e-12 -2.3675e-11 0)
(-3.62344e-12 -3.06945e-11 0)
(3.62344e-12 -3.06945e-11 0)
(9.0179e-12 -2.3675e-11 0)
(1.08511e-11 -1.58669e-11 0)
(1.02245e-11 -1.02245e-11 0)
(8.71163e-12 -6.64911e-12 0)
(7.15639e-12 -4.44231e-12 0)
(5.83347e-12 -3.06293e-12 0)
(4.77721e-12 -2.17779e-12 0)
(3.94971e-12 -1.59258e-12 0)
(3.71765e-11 -1.19415e-12 0)
(-3.84492e-11 -9.31764e-13 0)
(-4.42299e-12 -1.26655e-12 0)
(-5.50328e-12 -1.77675e-12 0)
(-6.99081e-12 -2.58805e-12 0)
(-9.07488e-12 -3.94383e-12 0)
(-1.1996e-11 -6.34185e-12 0)
(-1.58669e-11 -1.08511e-11 0)
(-1.97924e-11 -1.97924e-11 0)
(-1.95931e-11 -3.73974e-11 0)
(-8.81867e-12 -6.26203e-11 0)
(8.81867e-12 -6.26203e-11 0)
(1.95931e-11 -3.73974e-11 0)
(1.97924e-11 -1.97924e-11 0)
(1.58669e-11 -1.08511e-11 0)
(1.1996e-11 -6.34185e-12 0)
(9.07488e-12 -3.94383e-12 0)
(6.99081e-12 -2.58805e-12 0)
(5.50328e-12 -1.77675e-12 0)
(4.42299e-12 -1.26655e-12 0)
(3.84492e-11 -9.31764e-13 0)
(-3.93749e-11 -5.94719e-13 0)
(-4.79469e-12 -8.19894e-13 0)
(-6.09871e-12 -1.17264e-12 0)
(-8.00055e-12 -1.75556e-12 0)
(-1.09102e-11 -2.78527e-12 0)
(-1.56189e-11 -4.76547e-12 0)
(-2.3675e-11 -9.0179e-12 0)
(-3.73974e-11 -1.95931e-11 0)
(-5.18459e-11 -5.18459e-11 0)
(-2.88464e-11 -1.83051e-10 0)
(2.88464e-11 -1.83051e-10 0)
(5.18459e-11 -5.18459e-11 0)
(3.73974e-11 -1.95931e-11 0)
(2.3675e-11 -9.0179e-12 0)
(1.56189e-11 -4.76547e-12 0)
(1.09102e-11 -2.78527e-12 0)
(8.00055e-12 -1.75556e-12 0)
(6.09871e-12 -1.17264e-12 0)
(4.79469e-12 -8.19894e-13 0)
(3.93749e-11 -5.94719e-13 0)
(-3.98638e-11 -2.04658e-13 0)
(-5.00091e-12 -2.84281e-13 0)
(-6.43894e-12 -4.10874e-13 0)
(-8.60344e-12 -6.24508e-13 0)
(-1.20848e-11 -1.01376e-12 0)
(-1.82286e-11 -1.79911e-12 0)
(-3.06945e-11 -3.62344e-12 0)
(-6.26203e-11 -8.81867e-12 0)
(-1.83051e-10 -2.88464e-11 0)
(-1.40023e-10 -1.40023e-10 0)
(1.40023e-10 -1.40023e-10 0)
(1.83051e-10 -2.88464e-11 0)
(6.26203e-11 -8.81867e-12 0)
(3.06945e-11 -3.62344e-12 0)
(1.82286e-11 -1.79911e-12 0)
(1.20848e-11 -1.01376e-12 0)
(8.60344e-12 -6.24508e-13 0)
(6.43894e-12 -4.10874e-13 0)
(5.00091e-12 -2.84281e-13 0)
(3.98638e-11 -2.04658e-13 0)
(-3.98638e-11 2.04658e-13 0)
(-5.00091e-12 2.84281e-13 0)
(-6.43894e-12 4.10874e-13 0)
(-8.60344e-12 6.24508e-13 0)
(-1.20848e-11 1.01376e-12 0)
(-1.82286e-11 1.79911e-12 0)
(-3.06945e-11 3.62344e-12 0)
(-6.26203e-11 8.81867e-12 0)
(-1.83051e-10 2.88464e-11 0)
(-1.40023e-10 1.40023e-10 0)
(1.40023e-10 1.40023e-10 0)
(1.83051e-10 2.88464e-11 0)
(6.26203e-11 8.81867e-12 0)
(3.06945e-11 3.62344e-12 0)
(1.82286e-11 1.79911e-12 0)
(1.20848e-11 1.01376e-12 0)
(8.60344e-12 6.24508e-13 0)
(6.43894e-12 4.10874e-13 0)
(5.00091e-12 2.84281e-13 0)
(3.98638e-11 2.04658e-13 0)
(-3.93749e-11 5.94719e-13 0)
(-4.79469e-12 8.19894e-13 0)
(-6.09871e-12 1.17264e-12 0)
(-8.00055e-12 1.75556e-12 0)
(-1.09102e-11 2.78527e-12 0)
(-1.56189e-11 4.76547e-12 0)
(-2.3675e-11 9.0179e-12 0)
(-3.73974e-11 1.95931e-11 0)
(-5.18459e-11 5.18459e-11 0)
(-2.88464e-11 1.83051e-10 0)
(2.88464e-11 1.83051e-10 0)
(5.18459e-11 5.18459e-11 0)
(3.73974e-11 1.95931e-11 0)
(2.3675e-11 9.0179e-12 0)
(1.56189e-11 4.76547e-12 0)
(1.09102e-11 2.78527e-12 0)
(8.00055e-12 1.75556e-12 0)
(6.09871e-12 1.17264e-12 0)
(4.79469e-12 8.19894e-13 0)
(3.93749e-11 5.94719e-13 0)
(-3.84492e-11 9.31764e-13 0)
(-4.42299e-12 1.26655e-12 0)
(-5.50328e-12 1.77675e-12 0)
(-6.99081e-12 2.58805e-12 0)
(-9.07488e-12 3.94383e-12 0)
(-1.1996e-11 6.34185e-12 0)
(-1.58669e-11 1.08511e-11 0)
(-1.97924e-11 1.97924e-11 0)
(-1.95931e-11 3.73974e-11 0)
(-8.81867e-12 6.26203e-11 0)
(8.81867e-12 6.26203e-11 0)
(1.95931e-11 3.73974e-11 0)
(1.97924e-11 1.97924e-11 0)
(1.58669e-11 1.08511e-11 0)
(1.1996e-11 6.34185e-12 0)
(9.07488e-12 3.94383e-12 0)
(6.99081e-12 2.58805e-12 0)
(5.50328e-12 1.77675e-12 0)
(4.42299e-12 1.26655e-12 0)
(3.84492e-11 9.31764e-13 0)
(-3.71765e-11 1.19415e-12 0)
(-3.94971e-12 1.59258e-12 0)
(-4.77721e-12 2.17779e-12 0)
(-5.83347e-12 3.06293e-12 0)
(-7.15639e-12 4.44231e-12 0)
(-8.71163e-12 6.64911e-12 0)
(-1.02245e-11 1.02245e-11 0)
(-1.08511e-11 1.58669e-11 0)
(-9.0179e-12 2.3675e-11 0)
(-3.62344e-12 3.06945e-11 0)
(3.62344e-12 3.06945e-11 0)
(9.0179e-12 2.3675e-11 0)
(1.08511e-11 1.58669e-11 0)
(1.02245e-11 1.02245e-11 0)
(8.71163e-12 6.64911e-12 0)
(7.15639e-12 4.44231e-12 0)
(5.83347e-12 3.06293e-12 0)
(4.77721e-12 2.17779e-12 0)
(3.94971e-12 1.59258e-12 0)
(3.71765e-11 1.19415e-12 0)
(-3.56624e-11 1.37478e-12 0)
(-3.43935e-12 1.79341e-12 0)
(-4.03293e-12 2.38288e-12 0)
(-4.72629e-12 3.22638e-12 0)
(-5.4887e-12 4.44705e-12 0)
(-6.21382e-12 6.21382e-12 0)
(-6.64911e-12 8.71163e-12 0)
(-6.34185e-12 1.1996e-11 0)
(-4.76547e-12 1.56189e-11 0)
(-1.79911e-12 1.82286e-11 0)
(1.79911e-12 1.82286e-11 0)
(4.76547e-12 1.56189e-11 0)
(6.34185e-12 1.1996e-11 0)
(6.64911e-12 8.71163e-12 0)
(6.21382e-12 6.21382e-12 0)
(5.4887e-12 4.44705e-12 0)
(4.72629e-12 3.22638e-12 0)
(4.03293e-12 2.38288e-12 0)
(3.43935e-12 1.79341e-12 0)
(3.56624e-11 1.37478e-12 0)
(-3.40083e-11 1.47873e-12 0)
(-2.94161e-12 1.88449e-12 0)
(-3.34424e-12 2.43126e-12 0)
(-3.7693e-12 3.17128e-12 0)
(-4.16895e-12 4.16895e-12 0)
(-4.44705e-12 5.4887e-12 0)
(-4.44231e-12 7.15639e-12 0)
(-3.94383e-12 9.07488e-12 0)
(-2.78527e-12 1.09102e-11 0)
(-1.01376e-12 1.20848e-11 0)
(1.01376e-12 1.20848e-11 0)
(2.78527e-12 1.09102e-11 0)
(3.94383e-12 9.07488e-12 0)
(4.44231e-12 7.15639e-12 0)
(4.44705e-12 5.4887e-12 0)
(4.16895e-12 4.16895e-12 0)
(3.7693e-12 3.17128e-12 0)
(3.34424e-12 2.43126e-12 0)
(2.94161e-12 1.88449e-12 0)
(3.40083e-11 1.47873e-12 0)
(-3.22992e-11 1.51857e-12 0)
(-2.48683e-12 1.89085e-12 0)
(-2.74613e-12 2.37142e-12 0)
(-2.9886e-12 2.9886e-12 0)
(-3.17128e-12 3.7693e-12 0)
(-3.22638e-12 4.72629e-12 0)
(-3.06293e-12 5.83347e-12 0)
(-2.58805e-12 6.99081e-12 0)
(-1.75556e-12 8.00055e-12 0)
(-6.24508e-13 8.60344e-12 0)
(6.24508e-13 8.60344e-12 0)
(1.75556e-12 8.00055e-12 0)
(2.58805e-12 6.99081e-12 0)
(3.06293e-12 5.83347e-12 0)
(3.22638e-12 4.72629e-12 0)
(3.17128e-12 3.7693e-12 0)
(2.9886e-12 2.9886e-12 0)
(2.74613e-12 2.37142e-12 0)
(2.48683e-12 1.89085e-12 0)
(3.22992e-11 1.51857e-12 0)
(-3.05989e-11 1.50957e-12 0)
(-2.08876e-12 1.83857e-12 0)
(-2.2465e-12 2.2465e-12 0)
(-2.37142e-12 2.74613e-12 0)
(-2.43126e-12 3.34424e-12 0)
(-2.38288e-12 4.03293e-12 0)
(-2.17779e-12 4.77721e-12 0)
(-1.77675e-12 5.50328e-12 0)
(-1.17264e-12 6.09871e-12 0)
(-4.10874e-13 6.43894e-12 0)
(4.10874e-13 6.43894e-12 0)
(1.17264e-12 6.09871e-12 0)
(1.77675e-12 5.50328e-12 0)
(2.17779e-12 4.77721e-12 0)
(2.38288e-12 4.03293e-12 0)
(2.43126e-12 3.34424e-12 0)
(2.37142e-12 2.74613e-12 0)
(2.2465e-12 2.2465e-12 0)
(2.08876e-12 1.83857e-12 0)
(3.05989e-11 1.50957e-12 0)
(-2.89511e-11 1.46639e-12 0)
(-1.7499e-12 1.7499e-12 0)
(-1.83857e-12 2.08876e-12 0)
(-1.89085e-12 2.48683e-12 0)
(-1.88449e-12 2.94161e-12 0)
(-1.79341e-12 3.43935e-12 0)
(-1.59258e-12 3.94971e-12 0)
(-1.26655e-12 4.42299e-12 0)
(-8.19894e-13 4.79469e-12 0)
(-2.84281e-13 5.00091e-12 0)
(2.84281e-13 5.00091e-12 0)
(8.19894e-13 4.79469e-12 0)
(1.26655e-12 4.42299e-12 0)
(1.59258e-12 3.94971e-12 0)
(1.79341e-12 3.43935e-12 0)
(1.88449e-12 2.94161e-12 0)
(1.89085e-12 2.48683e-12 0)
(1.83857e-12 2.08876e-12 0)
(1.7499e-12 1.7499e-12 0)
(2.89511e-11 1.46639e-12 0)
(-2.73826e-11 2.73826e-11 0)
(-1.46639e-12 2.89511e-11 0)
(-1.50957e-12 3.05989e-11 0)
(-1.51857e-12 3.22992e-11 0)
(-1.47873e-12 3.40083e-11 0)
(-1.37478e-12 3.56624e-11 0)
(-1.19415e-12 3.71765e-11 0)
(-9.31764e-13 3.84492e-11 0)
(-5.94719e-13 3.93749e-11 0)
(-2.04658e-13 3.98638e-11 0)
(2.04658e-13 3.98638e-11 0)
(5.94719e-13 3.93749e-11 0)
(9.31764e-13 3.84492e-11 0)
(1.19415e-12 3.71765e-11 0)
(1.37478e-12 3.56624e-11 0)
(1.47873e-12 3.40083e-11 0)
(1.51857e-12 3.22992e-11 0)
(1.50957e-12 3.05989e-11 0)
(1.46639e-12 2.89511e-11 0)
(2.73826e-11 2.73826e-11 0)
)
;

boundaryField
{
    movingWall
    {
        type            fixedValue;
        value           uniform (1 0 0);
    }
    fixedWalls
    {
        type            fixedValue;
        value           uniform (0 0 0);
    }
    frontAndBack
    {
        type            empty;
    }
}


// ************************************************************************* //
