/*--------------------------------*- C++ -*----------------------------------*\
| =========                 |                                                 |
| \\      /  F ield         | OpenFOAM: The Open Source CFD Toolbox           |
|  \\    /   O peration     | Version:  v2012                                 |
|   \\  /    A nd           | Website:  www.openfoam.com                      |
|    \\/     M anipulation  |                                                 |
\*---------------------------------------------------------------------------*/
FoamFile
{
    version     2.0;
    format      ascii;
    class       volVectorField;
    location    "9";
    object      U;
}
// * * * * * * * * * * * * * * * * * * * * * * * * * * * * * * * * * * * * * //

dimensions      [0 1 -1 0 0 0 0];


internalField   nonuniform List<vector> 
400
(
(-9.45465e-12 -9.45465e-12 0)
(-5.06314e-13 -9.9962e-12 0)
(-5.21222e-13 -1.05652e-11 0)
(-5.24331e-13 -1.11522e-11 0)
(-5.10576e-13 -1.17424e-11 0)
(-4.74682e-13 -1.23135e-11 0)
(-4.12316e-13 -1.28363e-11 0)
(-3.21718e-13 -1.32757e-11 0)
(-2.05344e-13 -1.35953e-11 0)
(-7.06641e-14 -1.37641e-11 0)
(7.06641e-14 -1.37641e-11 0)
(2.05344e-13 -1.35953e-11 0)
(3.21718e-13 -1.32757e-11 0)
(4.12316e-13 -1.28363e-11 0)
(4.74682e-13 -1.23135e-11 0)
(5.10576e-13 -1.17424e-11 0)
(5.24331e-13 -1.11522e-11 0)
(5.21222e-13 -1.05652e-11 0)
(5.06314e-13 -9.9962e-12 0)
(9.45465e-12 -9.45465e-12 0)
(-9.9962e-12 -5.06314e-13 0)
(-6.04202e-13 -6.04202e-13 0)
(-6.34819e-13 -7.21205e-13 0)
(-6.52872e-13 -8.58649e-13 0)
(-6.50673e-13 -1.01568e-12 0)
(-6.19226e-13 -1.18754e-12 0)
(-5.49886e-13 -1.36375e-12 0)
(-4.37314e-13 -1.52716e-12 0)
(-2.83092e-13 -1.65551e-12 0)
(-9.81561e-14 -1.72671e-12 0)
(9.81561e-14 -1.72671e-12 0)
(2.83092e-13 -1.65551e-12 0)
(4.37314e-13 -1.52716e-12 0)
(5.49886e-13 -1.36375e-12 0)
(6.19226e-13 -1.18754e-12 0)
(6.50673e-13 -1.01568e-12 0)
(6.52872e-13 -8.58649e-13 0)
(6.34819e-13 -7.21205e-13 0)
(6.04202e-13 -6.04202e-13 0)
(9.9962e-12 -5.06314e-13 0)
(-1.05652e-11 -5.21222e-13 0)
(-7.21205e-13 -6.34819e-13 0)
(-7.75669e-13 -7.75669e-13 0)
(-8.18801e-13 -9.48181e-13 0)
(-8.39462e-13 -1.1547e-12 0)
(-8.22758e-13 -1.39249e-12 0)
(-7.51945e-13 -1.64947e-12 0)
(-6.13473e-13 -1.90017e-12 0)
(-4.04888e-13 -2.10576e-12 0)
(-1.41866e-13 -2.22323e-12 0)
(1.41866e-13 -2.22323e-12 0)
(4.04888e-13 -2.10576e-12 0)
(6.13473e-13 -1.90017e-12 0)
(7.51945e-13 -1.64947e-12 0)
(8.22758e-13 -1.39249e-12 0)
(8.39462e-13 -1.1547e-12 0)
(8.18801e-13 -9.48181e-13 0)
(7.75669e-13 -7.75669e-13 0)
(7.21205e-13 -6.34819e-13 0)
(1.05652e-11 -5.21222e-13 0)
(-1.11522e-11 -5.24331e-13 0)
(-8.58649e-13 -6.52872e-13 0)
(-9.48181e-13 -8.18801e-13 0)
(-1.0319e-12 -1.0319e-12 0)
(-1.09498e-12 -1.30146e-12 0)
(-1.114e-12 -1.63189e-12 0)
(-1.05757e-12 -2.01417e-12 0)
(-8.936e-13 -2.41378e-12 0)
(-6.06157e-13 -2.76242e-12 0)
(-2.15629e-13 -2.97059e-12 0)
(2.15629e-13 -2.97059e-12 0)
(6.06157e-13 -2.76242e-12 0)
(8.936e-13 -2.41378e-12 0)
(1.05757e-12 -2.01417e-12 0)
(1.114e-12 -1.63189e-12 0)
(1.09498e-12 -1.30146e-12 0)
(1.0319e-12 -1.0319e-12 0)
(9.48181e-13 -8.18801e-13 0)
(8.58649e-13 -6.52872e-13 0)
(1.11522e-11 -5.24331e-13 0)
(-1.17424e-11 -5.10576e-13 0)
(-1.01568e-12 -6.50673e-13 0)
(-1.1547e-12 -8.39462e-13 0)
(-1.30146e-12 -1.09498e-12 0)
(-1.43945e-12 -1.43945e-12 0)
(-1.53547e-12 -1.89513e-12 0)
(-1.53384e-12 -2.47095e-12 0)
(-1.36172e-12 -3.13336e-12 0)
(-9.61695e-13 -3.76706e-12 0)
(-3.50031e-13 -4.17262e-12 0)
(3.50031e-13 -4.17262e-12 0)
(9.61695e-13 -3.76706e-12 0)
(1.36172e-12 -3.13336e-12 0)
(1.53384e-12 -2.47095e-12 0)
(1.53547e-12 -1.89513e-12 0)
(1.43945e-12 -1.43945e-12 0)
(1.30146e-12 -1.09498e-12 0)
(1.1547e-12 -8.39462e-13 0)
(1.01568e-12 -6.50673e-13 0)
(1.17424e-11 -5.10576e-13 0)
(-1.23135e-11 -4.74682e-13 0)
(-1.18754e-12 -6.19226e-13 0)
(-1.39249e-12 -8.22758e-13 0)
(-1.63189e-12 -1.114e-12 0)
(-1.89513e-12 -1.53547e-12 0)
(-2.1455e-12 -2.1455e-12 0)
(-2.2958e-12 -3.00794e-12 0)
(-2.18971e-12 -4.14195e-12 0)
(-1.64542e-12 -5.39288e-12 0)
(-6.21196e-13 -6.29395e-12 0)
(6.21196e-13 -6.29395e-12 0)
(1.64542e-12 -5.39288e-12 0)
(2.18971e-12 -4.14195e-12 0)
(2.2958e-12 -3.00794e-12 0)
(2.1455e-12 -2.1455e-12 0)
(1.89513e-12 -1.53547e-12 0)
(1.63189e-12 -1.114e-12 0)
(1.39249e-12 -8.22758e-13 0)
(1.18754e-12 -6.19226e-13 0)
(1.23135e-11 -4.74682e-13 0)
(-1.28363e-11 -4.12316e-13 0)
(-1.36375e-12 -5.49886e-13 0)
(-1.64947e-12 -7.51945e-13 0)
(-2.01417e-12 -1.05757e-12 0)
(-2.47095e-12 -1.53384e-12 0)
(-3.00794e-12 -2.2958e-12 0)
(-3.53029e-12 -3.53029e-12 0)
(-3.74666e-12 -5.47849e-12 0)
(-3.11369e-12 -8.17447e-12 0)
(-1.2511e-12 -1.05982e-11 0)
(1.2511e-12 -1.05982e-11 0)
(3.11369e-12 -8.17447e-12 0)
(3.74666e-12 -5.47849e-12 0)
(3.53029e-12 -3.53029e-12 0)
(3.00794e-12 -2.2958e-12 0)
(2.47095e-12 -1.53384e-12 0)
(2.01417e-12 -1.05757e-12 0)
(1.64947e-12 -7.51945e-13 0)
(1.36375e-12 -5.49886e-13 0)
(1.28363e-11 -4.12316e-13 0)
(-1.32757e-11 -3.21718e-13 0)
(-1.52716e-12 -4.37314e-13 0)
(-1.90017e-12 -6.13473e-13 0)
(-2.41378e-12 -8.936e-13 0)
(-3.13336e-12 -1.36172e-12 0)
(-4.14195e-12 -2.18971e-12 0)
(-5.47849e-12 -3.74666e-12 0)
(-6.83389e-12 -6.83389e-12 0)
(-6.7651e-12 -1.29125e-11 0)
(-3.0449e-12 -2.16215e-11 0)
(3.0449e-12 -2.16215e-11 0)
(6.7651e-12 -1.29125e-11 0)
(6.83389e-12 -6.83389e-12 0)
(5.47849e-12 -3.74666e-12 0)
(4.14195e-12 -2.18971e-12 0)
(3.13336e-12 -1.36172e-12 0)
(2.41378e-12 -8.936e-13 0)
(1.90017e-12 -6.13473e-13 0)
(1.52716e-12 -4.37314e-13 0)
(1.32757e-11 -3.21718e-13 0)
(-1.35953e-11 -2.05344e-13 0)
(-1.65551e-12 -2.83092e-13 0)
(-2.10576e-12 -4.04888e-13 0)
(-2.76242e-12 -6.06157e-13 0)
(-3.76706e-12 -9.61695e-13 0)
(-5.39288e-12 -1.64542e-12 0)
(-8.17447e-12 -3.11369e-12 0)
(-1.29125e-11 -6.7651e-12 0)
(-1.79013e-11 -1.79013e-11 0)
(-9.96005e-12 -6.32035e-11 0)
(9.96005e-12 -6.32035e-11 0)
(1.79013e-11 -1.79013e-11 0)
(1.29125e-11 -6.7651e-12 0)
(8.17447e-12 -3.11369e-12 0)
(5.39288e-12 -1.64542e-12 0)
(3.76706e-12 -9.61695e-13 0)
(2.76242e-12 -6.06157e-13 0)
(2.10576e-12 -4.04888e-13 0)
(1.65551e-12 -2.83092e-13 0)
(1.35953e-11 -2.05344e-13 0)
(-1.37641e-11 -7.06641e-14 0)
(-1.72671e-12 -9.81561e-14 0)
(-2.22323e-12 -1.41866e-13 0)
(-2.97059e-12 -2.15629e-13 0)
(-4.17262e-12 -3.50031e-13 0)
(-6.29395e-12 -6.21196e-13 0)
(-1.05982e-11 -1.2511e-12 0)
(-2.16215e-11 -3.0449e-12 0)
(-6.32035e-11 -9.96005e-12 0)
(-4.83471e-11 -4.83471e-11 0)
(4.83471e-11 -4.83471e-11 0)
(6.32035e-11 -9.96005e-12 0)
(2.16215e-11 -3.0449e-12 0)
(1.05982e-11 -1.2511e-12 0)
(6.29395e-12 -6.21196e-13 0)
(4.17262e-12 -3.50031e-13 0)
(2.97059e-12 -2.15629e-13 0)
(2.22323e-12 -1.41866e-13 0)
(1.72671e-12 -9.81561e-14 0)
(1.37641e-11 -7.06641e-14 0)
(-1.37641e-11 7.06641e-14 0)
(-1.72671e-12 9.81561e-14 0)
(-2.22323e-12 1.41866e-13 0)
(-2.97059e-12 2.15629e-13 0)
(-4.17262e-12 3.50031e-13 0)
(-6.29395e-12 6.21196e-13 0)
(-1.05982e-11 1.2511e-12 0)
(-2.16215e-11 3.0449e-12 0)
(-6.32035e-11 9.96005e-12 0)
(-4.83471e-11 4.83471e-11 0)
(4.83471e-11 4.83471e-11 0)
(6.32035e-11 9.96005e-12 0)
(2.16215e-11 3.0449e-12 0)
(1.05982e-11 1.2511e-12 0)
(6.29395e-12 6.21196e-13 0)
(4.17262e-12 3.50031e-13 0)
(2.97059e-12 2.15629e-13 0)
(2.22323e-12 1.41866e-13 0)
(1.72671e-12 9.81561e-14 0)
(1.37641e-11 7.06641e-14 0)
(-1.35953e-11 2.05344e-13 0)
(-1.65551e-12 2.83092e-13 0)
(-2.10576e-12 4.04888e-13 0)
(-2.76242e-12 6.06157e-13 0)
(-3.76706e-12 9.61695e-13 0)
(-5.39288e-12 1.64542e-12 0)
(-8.17447e-12 3.11369e-12 0)
(-1.29125e-11 6.7651e-12 0)
(-1.79013e-11 1.79013e-11 0)
(-9.96005e-12 6.32035e-11 0)
(9.96005e-12 6.32035e-11 0)
(1.79013e-11 1.79013e-11 0)
(1.29125e-11 6.7651e-12 0)
(8.17447e-12 3.11369e-12 0)
(5.39288e-12 1.64542e-12 0)
(3.76706e-12 9.61695e-13 0)
(2.76242e-12 6.06157e-13 0)
(2.10576e-12 4.04888e-13 0)
(1.65551e-12 2.83092e-13 0)
(1.35953e-11 2.05344e-13 0)
(-1.32757e-11 3.21718e-13 0)
(-1.52716e-12 4.37314e-13 0)
(-1.90017e-12 6.13473e-13 0)
(-2.41378e-12 8.936e-13 0)
(-3.13336e-12 1.36172e-12 0)
(-4.14195e-12 2.18971e-12 0)
(-5.47849e-12 3.74666e-12 0)
(-6.83389e-12 6.83389e-12 0)
(-6.7651e-12 1.29125e-11 0)
(-3.0449e-12 2.16215e-11 0)
(3.0449e-12 2.16215e-11 0)
(6.7651e-12 1.29125e-11 0)
(6.83389e-12 6.83389e-12 0)
(5.47849e-12 3.74666e-12 0)
(4.14195e-12 2.18971e-12 0)
(3.13336e-12 1.36172e-12 0)
(2.41378e-12 8.936e-13 0)
(1.90017e-12 6.13473e-13 0)
(1.52716e-12 4.37314e-13 0)
(1.32757e-11 3.21718e-13 0)
(-1.28363e-11 4.12316e-13 0)
(-1.36375e-12 5.49886e-13 0)
(-1.64947e-12 7.51945e-13 0)
(-2.01417e-12 1.05757e-12 0)
(-2.47095e-12 1.53384e-12 0)
(-3.00794e-12 2.2958e-12 0)
(-3.53029e-12 3.53029e-12 0)
(-3.74666e-12 5.47849e-12 0)
(-3.11369e-12 8.17447e-12 0)
(-1.2511e-12 1.05982e-11 0)
(1.2511e-12 1.05982e-11 0)
(3.11369e-12 8.17447e-12 0)
(3.74666e-12 5.47849e-12 0)
(3.53029e-12 3.53029e-12 0)
(3.00794e-12 2.2958e-12 0)
(2.47095e-12 1.53384e-12 0)
(2.01417e-12 1.05757e-12 0)
(1.64947e-12 7.51945e-13 0)
(1.36375e-12 5.49886e-13 0)
(1.28363e-11 4.12316e-13 0)
(-1.23135e-11 4.74682e-13 0)
(-1.18754e-12 6.19226e-13 0)
(-1.39249e-12 8.22758e-13 0)
(-1.63189e-12 1.114e-12 0)
(-1.89513e-12 1.53547e-12 0)
(-2.1455e-12 2.1455e-12 0)
(-2.2958e-12 3.00794e-12 0)
(-2.18971e-12 4.14195e-12 0)
(-1.64542e-12 5.39288e-12 0)
(-6.21196e-13 6.29395e-12 0)
(6.21196e-13 6.29395e-12 0)
(1.64542e-12 5.39288e-12 0)
(2.18971e-12 4.14195e-12 0)
(2.2958e-12 3.00794e-12 0)
(2.1455e-12 2.1455e-12 0)
(1.89513e-12 1.53547e-12 0)
(1.63189e-12 1.114e-12 0)
(1.39249e-12 8.22758e-13 0)
(1.18754e-12 6.19226e-13 0)
(1.23135e-11 4.74682e-13 0)
(-1.17424e-11 5.10576e-13 0)
(-1.01568e-12 6.50673e-13 0)
(-1.1547e-12 8.39462e-13 0)
(-1.30146e-12 1.09498e-12 0)
(-1.43945e-12 1.43945e-12 0)
(-1.53547e-12 1.89513e-12 0)
(-1.53384e-12 2.47095e-12 0)
(-1.36172e-12 3.13336e-12 0)
(-9.61695e-13 3.76706e-12 0)
(-3.50031e-13 4.17262e-12 0)
(3.50031e-13 4.17262e-12 0)
(9.61695e-13 3.76706e-12 0)
(1.36172e-12 3.13336e-12 0)
(1.53384e-12 2.47095e-12 0)
(1.53547e-12 1.89513e-12 0)
(1.43945e-12 1.43945e-12 0)
(1.30146e-12 1.09498e-12 0)
(1.1547e-12 8.39462e-13 0)
(1.01568e-12 6.50673e-13 0)
(1.17424e-11 5.10576e-13 0)
(-1.11522e-11 5.24331e-13 0)
(-8.58649e-13 6.52872e-13 0)
(-9.48181e-13 8.18801e-13 0)
(-1.0319e-12 1.0319e-12 0)
(-1.09498e-12 1.30146e-12 0)
(-1.114e-12 1.63189e-12 0)
(-1.05757e-12 2.01417e-12 0)
(-8.936e-13 2.41378e-12 0)
(-6.06157e-13 2.76242e-12 0)
(-2.15629e-13 2.97059e-12 0)
(2.15629e-13 2.97059e-12 0)
(6.06157e-13 2.76242e-12 0)
(8.936e-13 2.41378e-12 0)
(1.05757e-12 2.01417e-12 0)
(1.114e-12 1.63189e-12 0)
(1.09498e-12 1.30146e-12 0)
(1.0319e-12 1.0319e-12 0)
(9.48181e-13 8.18801e-13 0)
(8.58649e-13 6.52872e-13 0)
(1.11522e-11 5.24331e-13 0)
(-1.05652e-11 5.21222e-13 0)
(-7.21205e-13 6.34819e-13 0)
(-7.75669e-13 7.75669e-13 0)
(-8.18801e-13 9.48181e-13 0)
(-8.39462e-13 1.1547e-12 0)
(-8.22758e-13 1.39249e-12 0)
(-7.51945e-13 1.64947e-12 0)
(-6.13473e-13 1.90017e-12 0)
(-4.04888e-13 2.10576e-12 0)
(-1.41866e-13 2.22323e-12 0)
(1.41866e-13 2.22323e-12 0)
(4.04888e-13 2.10576e-12 0)
(6.13473e-13 1.90017e-12 0)
(7.51945e-13 1.64947e-12 0)
(8.22758e-13 1.39249e-12 0)
(8.39462e-13 1.1547e-12 0)
(8.18801e-13 9.48181e-13 0)
(7.75669e-13 7.75669e-13 0)
(7.21205e-13 6.34819e-13 0)
(1.05652e-11 5.21222e-13 0)
(-9.9962e-12 5.06314e-13 0)
(-6.04202e-13 6.04202e-13 0)
(-6.34819e-13 7.21205e-13 0)
(-6.52872e-13 8.58649e-13 0)
(-6.50673e-13 1.01568e-12 0)
(-6.19226e-13 1.18754e-12 0)
(-5.49886e-13 1.36375e-12 0)
(-4.37314e-13 1.52716e-12 0)
(-2.83092e-13 1.65551e-12 0)
(-9.81561e-14 1.72671e-12 0)
(9.81561e-14 1.72671e-12 0)
(2.83092e-13 1.65551e-12 0)
(4.37314e-13 1.52716e-12 0)
(5.49886e-13 1.36375e-12 0)
(6.19226e-13 1.18754e-12 0)
(6.50673e-13 1.01568e-12 0)
(6.52872e-13 8.58649e-13 0)
(6.34819e-13 7.21205e-13 0)
(6.04202e-13 6.04202e-13 0)
(9.9962e-12 5.06314e-13 0)
(-9.45465e-12 9.45465e-12 0)
(-5.06314e-13 9.9962e-12 0)
(-5.21222e-13 1.05652e-11 0)
(-5.24331e-13 1.11522e-11 0)
(-5.10576e-13 1.17424e-11 0)
(-4.74682e-13 1.23135e-11 0)
(-4.12316e-13 1.28363e-11 0)
(-3.21718e-13 1.32757e-11 0)
(-2.05344e-13 1.35953e-11 0)
(-7.06641e-14 1.37641e-11 0)
(7.06641e-14 1.37641e-11 0)
(2.05344e-13 1.35953e-11 0)
(3.21718e-13 1.32757e-11 0)
(4.12316e-13 1.28363e-11 0)
(4.74682e-13 1.23135e-11 0)
(5.10576e-13 1.17424e-11 0)
(5.24331e-13 1.11522e-11 0)
(5.21222e-13 1.05652e-11 0)
(5.06314e-13 9.9962e-12 0)
(9.45465e-12 9.45465e-12 0)
)
;

boundaryField
{
    movingWall
    {
        type            fixedValue;
        value           uniform (1 0 0);
    }
    fixedWalls
    {
        type            fixedValue;
        value           uniform (0 0 0);
    }
    frontAndBack
    {
        type            empty;
    }
}


// ************************************************************************* //
