/*--------------------------------*- C++ -*----------------------------------*\
| =========                 |                                                 |
| \\      /  F ield         | OpenFOAM: The Open Source CFD Toolbox           |
|  \\    /   O peration     | Version:  v2012                                 |
|   \\  /    A nd           | Website:  www.openfoam.com                      |
|    \\/     M anipulation  |                                                 |
\*---------------------------------------------------------------------------*/
FoamFile
{
    version     2.0;
    format      ascii;
    class       volVectorField;
    location    "2";
    object      U;
}
// * * * * * * * * * * * * * * * * * * * * * * * * * * * * * * * * * * * * * //

dimensions      [0 1 -1 0 0 0 0];


internalField   nonuniform List<vector> 
400
(
(1.02043e-12 1.02043e-12 0)
(5.46461e-14 1.07888e-12 0)
(5.6255e-14 1.14029e-12 0)
(5.65906e-14 1.20365e-12 0)
(5.5106e-14 1.26734e-12 0)
(5.1232e-14 1.32898e-12 0)
(4.45009e-14 1.38541e-12 0)
(3.47228e-14 1.43283e-12 0)
(2.21626e-14 1.46733e-12 0)
(7.62672e-15 1.48555e-12 0)
(-7.62672e-15 1.48555e-12 0)
(-2.21626e-14 1.46733e-12 0)
(-3.47228e-14 1.43283e-12 0)
(-4.45009e-14 1.38541e-12 0)
(-5.1232e-14 1.32898e-12 0)
(-5.5106e-14 1.26734e-12 0)
(-5.65906e-14 1.20365e-12 0)
(-5.6255e-14 1.14029e-12 0)
(-5.46461e-14 1.07888e-12 0)
(-1.02043e-12 1.02043e-12 0)
(1.07888e-12 5.46461e-14 0)
(6.5211e-14 6.5211e-14 0)
(6.85155e-14 7.78391e-14 0)
(7.04639e-14 9.26733e-14 0)
(7.02266e-14 1.09621e-13 0)
(6.68326e-14 1.2817e-13 0)
(5.93487e-14 1.47189e-13 0)
(4.71989e-14 1.64826e-13 0)
(3.05539e-14 1.78677e-13 0)
(1.05939e-14 1.86362e-13 0)
(-1.05939e-14 1.86362e-13 0)
(-3.05539e-14 1.78677e-13 0)
(-4.71989e-14 1.64826e-13 0)
(-5.93487e-14 1.47189e-13 0)
(-6.68326e-14 1.2817e-13 0)
(-7.02266e-14 1.09621e-13 0)
(-7.04639e-14 9.26733e-14 0)
(-6.85155e-14 7.78391e-14 0)
(-6.5211e-14 6.5211e-14 0)
(-1.07888e-12 5.46461e-14 0)
(1.14029e-12 5.6255e-14 0)
(7.78391e-14 6.85155e-14 0)
(8.37173e-14 8.37173e-14 0)
(8.83725e-14 1.02336e-13 0)
(9.06024e-14 1.24625e-13 0)
(8.87996e-14 1.5029e-13 0)
(8.11568e-14 1.78026e-13 0)
(6.62116e-14 2.05083e-13 0)
(4.36992e-14 2.27273e-13 0)
(1.53115e-14 2.39951e-13 0)
(-1.53115e-14 2.39951e-13 0)
(-4.36992e-14 2.27273e-13 0)
(-6.62116e-14 2.05083e-13 0)
(-8.11568e-14 1.78026e-13 0)
(-8.87996e-14 1.5029e-13 0)
(-9.06024e-14 1.24625e-13 0)
(-8.83725e-14 1.02336e-13 0)
(-8.37173e-14 8.37173e-14 0)
(-7.78391e-14 6.85155e-14 0)
(-1.14029e-12 5.6255e-14 0)
(1.20365e-12 5.65906e-14 0)
(9.26733e-14 7.04639e-14 0)
(1.02336e-13 8.83725e-14 0)
(1.11372e-13 1.11372e-13 0)
(1.1818e-13 1.40465e-13 0)
(1.20233e-13 1.76128e-13 0)
(1.14142e-13 2.17388e-13 0)
(9.64455e-14 2.60517e-13 0)
(6.5422e-14 2.98146e-13 0)
(2.32727e-14 3.20613e-13 0)
(-2.32727e-14 3.20613e-13 0)
(-6.5422e-14 2.98146e-13 0)
(-9.64455e-14 2.60517e-13 0)
(-1.14142e-13 2.17388e-13 0)
(-1.20233e-13 1.76128e-13 0)
(-1.1818e-13 1.40465e-13 0)
(-1.11372e-13 1.11372e-13 0)
(-1.02336e-13 8.83725e-14 0)
(-9.26733e-14 7.04639e-14 0)
(-1.20365e-12 5.65906e-14 0)
(1.26734e-12 5.5106e-14 0)
(1.09621e-13 7.02266e-14 0)
(1.24625e-13 9.06024e-14 0)
(1.40465e-13 1.1818e-13 0)
(1.55359e-13 1.55359e-13 0)
(1.65722e-13 2.0454e-13 0)
(1.65546e-13 2.66688e-13 0)
(1.46969e-13 3.38181e-13 0)
(1.03795e-13 4.06575e-13 0)
(3.77785e-14 4.50348e-13 0)
(-3.77785e-14 4.50348e-13 0)
(-1.03795e-13 4.06575e-13 0)
(-1.46969e-13 3.38181e-13 0)
(-1.65546e-13 2.66688e-13 0)
(-1.65722e-13 2.0454e-13 0)
(-1.55359e-13 1.55359e-13 0)
(-1.40465e-13 1.1818e-13 0)
(-1.24625e-13 9.06024e-14 0)
(-1.09621e-13 7.02266e-14 0)
(-1.26734e-12 5.5106e-14 0)
(1.32898e-12 5.1232e-14 0)
(1.2817e-13 6.68326e-14 0)
(1.5029e-13 8.87996e-14 0)
(1.76128e-13 1.20233e-13 0)
(2.0454e-13 1.65722e-13 0)
(2.31562e-13 2.31562e-13 0)
(2.47783e-13 3.24645e-13 0)
(2.36333e-13 4.47037e-13 0)
(1.77588e-13 5.82049e-13 0)
(6.70451e-14 6.79301e-13 0)
(-6.70451e-14 6.79301e-13 0)
(-1.77588e-13 5.82049e-13 0)
(-2.36333e-13 4.47037e-13 0)
(-2.47783e-13 3.24645e-13 0)
(-2.31562e-13 2.31562e-13 0)
(-2.0454e-13 1.65722e-13 0)
(-1.76128e-13 1.20233e-13 0)
(-1.5029e-13 8.87996e-14 0)
(-1.2817e-13 6.68326e-14 0)
(-1.32898e-12 5.1232e-14 0)
(1.38541e-12 4.45009e-14 0)
(1.47189e-13 5.93487e-14 0)
(1.78026e-13 8.11568e-14 0)
(2.17388e-13 1.14142e-13 0)
(2.66688e-13 1.65546e-13 0)
(3.24645e-13 2.47783e-13 0)
(3.81021e-13 3.81021e-13 0)
(4.04374e-13 5.91289e-13 0)
(3.36058e-13 8.82263e-13 0)
(1.3503e-13 1.14385e-12 0)
(-1.3503e-13 1.14385e-12 0)
(-3.36058e-13 8.82263e-13 0)
(-4.04374e-13 5.91289e-13 0)
(-3.81021e-13 3.81021e-13 0)
(-3.24645e-13 2.47783e-13 0)
(-2.66688e-13 1.65546e-13 0)
(-2.17388e-13 1.14142e-13 0)
(-1.78026e-13 8.11568e-14 0)
(-1.47189e-13 5.93487e-14 0)
(-1.38541e-12 4.45009e-14 0)
(1.43283e-12 3.47228e-14 0)
(1.64826e-13 4.71989e-14 0)
(2.05083e-13 6.62116e-14 0)
(2.60517e-13 9.64455e-14 0)
(3.38181e-13 1.46969e-13 0)
(4.47037e-13 2.36333e-13 0)
(5.91289e-13 4.04374e-13 0)
(7.37576e-13 7.37576e-13 0)
(7.30151e-13 1.39364e-12 0)
(3.28633e-13 2.33359e-12 0)
(-3.28633e-13 2.33359e-12 0)
(-7.30151e-13 1.39364e-12 0)
(-7.37576e-13 7.37576e-13 0)
(-5.91289e-13 4.04374e-13 0)
(-4.47037e-13 2.36333e-13 0)
(-3.38181e-13 1.46969e-13 0)
(-2.60517e-13 9.64455e-14 0)
(-2.05083e-13 6.62116e-14 0)
(-1.64826e-13 4.71989e-14 0)
(-1.43283e-12 3.47228e-14 0)
(1.46733e-12 2.21626e-14 0)
(1.78677e-13 3.05539e-14 0)
(2.27273e-13 4.36992e-14 0)
(2.98146e-13 6.5422e-14 0)
(4.06575e-13 1.03795e-13 0)
(5.82049e-13 1.77588e-13 0)
(8.82263e-13 3.36058e-13 0)
(1.39364e-12 7.30151e-13 0)
(1.93207e-12 1.93207e-12 0)
(1.07498e-12 6.8215e-12 0)
(-1.07498e-12 6.8215e-12 0)
(-1.93207e-12 1.93207e-12 0)
(-1.39364e-12 7.30151e-13 0)
(-8.82263e-13 3.36058e-13 0)
(-5.82049e-13 1.77588e-13 0)
(-4.06575e-13 1.03795e-13 0)
(-2.98146e-13 6.5422e-14 0)
(-2.27273e-13 4.36992e-14 0)
(-1.78677e-13 3.05539e-14 0)
(-1.46733e-12 2.21626e-14 0)
(1.48555e-12 7.62672e-15 0)
(1.86362e-13 1.05939e-14 0)
(2.39951e-13 1.53115e-14 0)
(3.20613e-13 2.32727e-14 0)
(4.50348e-13 3.77785e-14 0)
(6.79301e-13 6.70451e-14 0)
(1.14385e-12 1.3503e-13 0)
(2.33359e-12 3.28633e-13 0)
(6.8215e-12 1.07498e-12 0)
(5.21806e-12 5.21806e-12 0)
(-5.21806e-12 5.21806e-12 0)
(-6.8215e-12 1.07498e-12 0)
(-2.33359e-12 3.28633e-13 0)
(-1.14385e-12 1.3503e-13 0)
(-6.79301e-13 6.70451e-14 0)
(-4.50348e-13 3.77785e-14 0)
(-3.20613e-13 2.32727e-14 0)
(-2.39951e-13 1.53115e-14 0)
(-1.86362e-13 1.05939e-14 0)
(-1.48555e-12 7.62672e-15 0)
(1.48555e-12 -7.62672e-15 0)
(1.86362e-13 -1.05939e-14 0)
(2.39951e-13 -1.53115e-14 0)
(3.20613e-13 -2.32727e-14 0)
(4.50348e-13 -3.77785e-14 0)
(6.79301e-13 -6.70451e-14 0)
(1.14385e-12 -1.3503e-13 0)
(2.33359e-12 -3.28633e-13 0)
(6.8215e-12 -1.07498e-12 0)
(5.21806e-12 -5.21806e-12 0)
(-5.21806e-12 -5.21806e-12 0)
(-6.8215e-12 -1.07498e-12 0)
(-2.33359e-12 -3.28633e-13 0)
(-1.14385e-12 -1.3503e-13 0)
(-6.79301e-13 -6.70451e-14 0)
(-4.50348e-13 -3.77785e-14 0)
(-3.20613e-13 -2.32727e-14 0)
(-2.39951e-13 -1.53115e-14 0)
(-1.86362e-13 -1.05939e-14 0)
(-1.48555e-12 -7.62672e-15 0)
(1.46733e-12 -2.21626e-14 0)
(1.78677e-13 -3.05539e-14 0)
(2.27273e-13 -4.36992e-14 0)
(2.98146e-13 -6.5422e-14 0)
(4.06575e-13 -1.03795e-13 0)
(5.82049e-13 -1.77588e-13 0)
(8.82263e-13 -3.36058e-13 0)
(1.39364e-12 -7.30151e-13 0)
(1.93207e-12 -1.93207e-12 0)
(1.07498e-12 -6.8215e-12 0)
(-1.07498e-12 -6.8215e-12 0)
(-1.93207e-12 -1.93207e-12 0)
(-1.39364e-12 -7.30151e-13 0)
(-8.82263e-13 -3.36058e-13 0)
(-5.82049e-13 -1.77588e-13 0)
(-4.06575e-13 -1.03795e-13 0)
(-2.98146e-13 -6.5422e-14 0)
(-2.27273e-13 -4.36992e-14 0)
(-1.78677e-13 -3.05539e-14 0)
(-1.46733e-12 -2.21626e-14 0)
(1.43283e-12 -3.47228e-14 0)
(1.64826e-13 -4.71989e-14 0)
(2.05083e-13 -6.62116e-14 0)
(2.60517e-13 -9.64455e-14 0)
(3.38181e-13 -1.46969e-13 0)
(4.47037e-13 -2.36333e-13 0)
(5.91289e-13 -4.04374e-13 0)
(7.37576e-13 -7.37576e-13 0)
(7.30151e-13 -1.39364e-12 0)
(3.28633e-13 -2.33359e-12 0)
(-3.28633e-13 -2.33359e-12 0)
(-7.30151e-13 -1.39364e-12 0)
(-7.37576e-13 -7.37576e-13 0)
(-5.91289e-13 -4.04374e-13 0)
(-4.47037e-13 -2.36333e-13 0)
(-3.38181e-13 -1.46969e-13 0)
(-2.60517e-13 -9.64455e-14 0)
(-2.05083e-13 -6.62116e-14 0)
(-1.64826e-13 -4.71989e-14 0)
(-1.43283e-12 -3.47228e-14 0)
(1.38541e-12 -4.45009e-14 0)
(1.47189e-13 -5.93487e-14 0)
(1.78026e-13 -8.11568e-14 0)
(2.17388e-13 -1.14142e-13 0)
(2.66688e-13 -1.65546e-13 0)
(3.24645e-13 -2.47783e-13 0)
(3.81021e-13 -3.81021e-13 0)
(4.04374e-13 -5.91289e-13 0)
(3.36058e-13 -8.82263e-13 0)
(1.3503e-13 -1.14385e-12 0)
(-1.3503e-13 -1.14385e-12 0)
(-3.36058e-13 -8.82263e-13 0)
(-4.04374e-13 -5.91289e-13 0)
(-3.81021e-13 -3.81021e-13 0)
(-3.24645e-13 -2.47783e-13 0)
(-2.66688e-13 -1.65546e-13 0)
(-2.17388e-13 -1.14142e-13 0)
(-1.78026e-13 -8.11568e-14 0)
(-1.47189e-13 -5.93487e-14 0)
(-1.38541e-12 -4.45009e-14 0)
(1.32898e-12 -5.1232e-14 0)
(1.2817e-13 -6.68326e-14 0)
(1.5029e-13 -8.87996e-14 0)
(1.76128e-13 -1.20233e-13 0)
(2.0454e-13 -1.65722e-13 0)
(2.31562e-13 -2.31562e-13 0)
(2.47783e-13 -3.24645e-13 0)
(2.36333e-13 -4.47037e-13 0)
(1.77588e-13 -5.82049e-13 0)
(6.70451e-14 -6.79301e-13 0)
(-6.70451e-14 -6.79301e-13 0)
(-1.77588e-13 -5.82049e-13 0)
(-2.36333e-13 -4.47037e-13 0)
(-2.47783e-13 -3.24645e-13 0)
(-2.31562e-13 -2.31562e-13 0)
(-2.0454e-13 -1.65722e-13 0)
(-1.76128e-13 -1.20233e-13 0)
(-1.5029e-13 -8.87996e-14 0)
(-1.2817e-13 -6.68326e-14 0)
(-1.32898e-12 -5.1232e-14 0)
(1.26734e-12 -5.5106e-14 0)
(1.09621e-13 -7.02266e-14 0)
(1.24625e-13 -9.06024e-14 0)
(1.40465e-13 -1.1818e-13 0)
(1.55359e-13 -1.55359e-13 0)
(1.65722e-13 -2.0454e-13 0)
(1.65546e-13 -2.66688e-13 0)
(1.46969e-13 -3.38181e-13 0)
(1.03795e-13 -4.06575e-13 0)
(3.77785e-14 -4.50348e-13 0)
(-3.77785e-14 -4.50348e-13 0)
(-1.03795e-13 -4.06575e-13 0)
(-1.46969e-13 -3.38181e-13 0)
(-1.65546e-13 -2.66688e-13 0)
(-1.65722e-13 -2.0454e-13 0)
(-1.55359e-13 -1.55359e-13 0)
(-1.40465e-13 -1.1818e-13 0)
(-1.24625e-13 -9.06024e-14 0)
(-1.09621e-13 -7.02266e-14 0)
(-1.26734e-12 -5.5106e-14 0)
(1.20365e-12 -5.65906e-14 0)
(9.26733e-14 -7.04639e-14 0)
(1.02336e-13 -8.83725e-14 0)
(1.11372e-13 -1.11372e-13 0)
(1.1818e-13 -1.40465e-13 0)
(1.20233e-13 -1.76128e-13 0)
(1.14142e-13 -2.17388e-13 0)
(9.64455e-14 -2.60517e-13 0)
(6.5422e-14 -2.98146e-13 0)
(2.32727e-14 -3.20613e-13 0)
(-2.32727e-14 -3.20613e-13 0)
(-6.5422e-14 -2.98146e-13 0)
(-9.64455e-14 -2.60517e-13 0)
(-1.14142e-13 -2.17388e-13 0)
(-1.20233e-13 -1.76128e-13 0)
(-1.1818e-13 -1.40465e-13 0)
(-1.11372e-13 -1.11372e-13 0)
(-1.02336e-13 -8.83725e-14 0)
(-9.26733e-14 -7.04639e-14 0)
(-1.20365e-12 -5.65906e-14 0)
(1.14029e-12 -5.6255e-14 0)
(7.78391e-14 -6.85155e-14 0)
(8.37173e-14 -8.37173e-14 0)
(8.83725e-14 -1.02336e-13 0)
(9.06024e-14 -1.24625e-13 0)
(8.87996e-14 -1.5029e-13 0)
(8.11568e-14 -1.78026e-13 0)
(6.62116e-14 -2.05083e-13 0)
(4.36992e-14 -2.27273e-13 0)
(1.53115e-14 -2.39951e-13 0)
(-1.53115e-14 -2.39951e-13 0)
(-4.36992e-14 -2.27273e-13 0)
(-6.62116e-14 -2.05083e-13 0)
(-8.11568e-14 -1.78026e-13 0)
(-8.87996e-14 -1.5029e-13 0)
(-9.06024e-14 -1.24625e-13 0)
(-8.83725e-14 -1.02336e-13 0)
(-8.37173e-14 -8.37173e-14 0)
(-7.78391e-14 -6.85155e-14 0)
(-1.14029e-12 -5.6255e-14 0)
(1.07888e-12 -5.46461e-14 0)
(6.5211e-14 -6.5211e-14 0)
(6.85155e-14 -7.78391e-14 0)
(7.04639e-14 -9.26733e-14 0)
(7.02266e-14 -1.09621e-13 0)
(6.68326e-14 -1.2817e-13 0)
(5.93487e-14 -1.47189e-13 0)
(4.71989e-14 -1.64826e-13 0)
(3.05539e-14 -1.78677e-13 0)
(1.05939e-14 -1.86362e-13 0)
(-1.05939e-14 -1.86362e-13 0)
(-3.05539e-14 -1.78677e-13 0)
(-4.71989e-14 -1.64826e-13 0)
(-5.93487e-14 -1.47189e-13 0)
(-6.68326e-14 -1.2817e-13 0)
(-7.02266e-14 -1.09621e-13 0)
(-7.04639e-14 -9.26733e-14 0)
(-6.85155e-14 -7.78391e-14 0)
(-6.5211e-14 -6.5211e-14 0)
(-1.07888e-12 -5.46461e-14 0)
(1.02043e-12 -1.02043e-12 0)
(5.46461e-14 -1.07888e-12 0)
(5.6255e-14 -1.14029e-12 0)
(5.65906e-14 -1.20365e-12 0)
(5.5106e-14 -1.26734e-12 0)
(5.1232e-14 -1.32898e-12 0)
(4.45009e-14 -1.38541e-12 0)
(3.47228e-14 -1.43283e-12 0)
(2.21626e-14 -1.46733e-12 0)
(7.62672e-15 -1.48555e-12 0)
(-7.62672e-15 -1.48555e-12 0)
(-2.21626e-14 -1.46733e-12 0)
(-3.47228e-14 -1.43283e-12 0)
(-4.45009e-14 -1.38541e-12 0)
(-5.1232e-14 -1.32898e-12 0)
(-5.5106e-14 -1.26734e-12 0)
(-5.65906e-14 -1.20365e-12 0)
(-5.6255e-14 -1.14029e-12 0)
(-5.46461e-14 -1.07888e-12 0)
(-1.02043e-12 -1.02043e-12 0)
)
;

boundaryField
{
    movingWall
    {
        type            fixedValue;
        value           uniform (1 0 0);
    }
    fixedWalls
    {
        type            fixedValue;
        value           uniform (0 0 0);
    }
    frontAndBack
    {
        type            empty;
    }
}


// ************************************************************************* //
