/*--------------------------------*- C++ -*----------------------------------*\
| =========                 |                                                 |
| \\      /  F ield         | OpenFOAM: The Open Source CFD Toolbox           |
|  \\    /   O peration     | Version:  v2012                                 |
|   \\  /    A nd           | Website:  www.openfoam.com                      |
|    \\/     M anipulation  |                                                 |
\*---------------------------------------------------------------------------*/
FoamFile
{
    version     2.0;
    format      ascii;
    class       volVectorField;
    location    "1.5";
    object      U;
}
// * * * * * * * * * * * * * * * * * * * * * * * * * * * * * * * * * * * * * //

dimensions      [0 1 -1 0 0 0 0];


internalField   nonuniform List<vector> 
400
(
(-6.7168e-13 -6.7168e-13 0)
(-3.59697e-14 -7.10153e-13 0)
(-3.70288e-14 -7.50574e-13 0)
(-3.72497e-14 -7.92281e-13 0)
(-3.62725e-14 -8.34205e-13 0)
(-3.37225e-14 -8.74779e-13 0)
(-2.92919e-14 -9.11919e-13 0)
(-2.28556e-14 -9.43136e-13 0)
(-1.45881e-14 -9.65842e-13 0)
(-5.02014e-15 -9.77836e-13 0)
(5.02014e-15 -9.77836e-13 0)
(1.45881e-14 -9.65842e-13 0)
(2.28556e-14 -9.43136e-13 0)
(2.92919e-14 -9.11919e-13 0)
(3.37225e-14 -8.74779e-13 0)
(3.62725e-14 -8.34205e-13 0)
(3.72497e-14 -7.92281e-13 0)
(3.70288e-14 -7.50574e-13 0)
(3.59697e-14 -7.10153e-13 0)
(6.7168e-13 -6.7168e-13 0)
(-7.10153e-13 -3.59697e-14 0)
(-4.29239e-14 -4.29239e-14 0)
(-4.5099e-14 -5.12361e-14 0)
(-4.63815e-14 -6.10004e-14 0)
(-4.62253e-14 -7.21559e-14 0)
(-4.39913e-14 -8.43653e-14 0)
(-3.90651e-14 -9.68841e-14 0)
(-3.10678e-14 -1.08493e-13 0)
(-2.01115e-14 -1.17611e-13 0)
(-6.97324e-15 -1.22669e-13 0)
(6.97324e-15 -1.22669e-13 0)
(2.01115e-14 -1.17611e-13 0)
(3.10678e-14 -1.08493e-13 0)
(3.90651e-14 -9.68841e-14 0)
(4.39913e-14 -8.43653e-14 0)
(4.62253e-14 -7.21559e-14 0)
(4.63815e-14 -6.10004e-14 0)
(4.5099e-14 -5.12361e-14 0)
(4.29239e-14 -4.29239e-14 0)
(7.10153e-13 -3.59697e-14 0)
(-7.50574e-13 -3.70288e-14 0)
(-5.12361e-14 -4.5099e-14 0)
(-5.51053e-14 -5.51053e-14 0)
(-5.81695e-14 -6.7361e-14 0)
(-5.96373e-14 -8.20323e-14 0)
(-5.84507e-14 -9.89254e-14 0)
(-5.34199e-14 -1.17182e-13 0)
(-4.35826e-14 -1.34992e-13 0)
(-2.87642e-14 -1.49598e-13 0)
(-1.00785e-14 -1.57943e-13 0)
(1.00785e-14 -1.57943e-13 0)
(2.87642e-14 -1.49598e-13 0)
(4.35826e-14 -1.34992e-13 0)
(5.34199e-14 -1.17182e-13 0)
(5.84507e-14 -9.89254e-14 0)
(5.96373e-14 -8.20323e-14 0)
(5.81695e-14 -6.7361e-14 0)
(5.51053e-14 -5.51053e-14 0)
(5.12361e-14 -4.5099e-14 0)
(7.50574e-13 -3.70288e-14 0)
(-7.92281e-13 -3.72497e-14 0)
(-6.10004e-14 -4.63815e-14 0)
(-6.7361e-14 -5.81695e-14 0)
(-7.33085e-14 -7.33085e-14 0)
(-7.77897e-14 -9.24587e-14 0)
(-7.91412e-14 -1.15933e-13 0)
(-7.5132e-14 -1.43092e-13 0)
(-6.34835e-14 -1.7148e-13 0)
(-4.30628e-14 -1.96249e-13 0)
(-1.53188e-14 -2.11037e-13 0)
(1.53188e-14 -2.11037e-13 0)
(4.30628e-14 -1.96249e-13 0)
(6.34835e-14 -1.7148e-13 0)
(7.5132e-14 -1.43092e-13 0)
(7.91412e-14 -1.15933e-13 0)
(7.77897e-14 -9.24587e-14 0)
(7.33085e-14 -7.33085e-14 0)
(6.7361e-14 -5.81695e-14 0)
(6.10004e-14 -4.63815e-14 0)
(7.92281e-13 -3.72497e-14 0)
(-8.34205e-13 -3.62725e-14 0)
(-7.21559e-14 -4.62253e-14 0)
(-8.20323e-14 -5.96373e-14 0)
(-9.24587e-14 -7.77897e-14 0)
(-1.02262e-13 -1.02262e-13 0)
(-1.09084e-13 -1.34635e-13 0)
(-1.08967e-13 -1.75542e-13 0)
(-9.67398e-14 -2.22601e-13 0)
(-6.8321e-14 -2.67621e-13 0)
(-2.4867e-14 -2.96433e-13 0)
(2.4867e-14 -2.96433e-13 0)
(6.8321e-14 -2.67621e-13 0)
(9.67398e-14 -2.22601e-13 0)
(1.08967e-13 -1.75542e-13 0)
(1.09084e-13 -1.34635e-13 0)
(1.02262e-13 -1.02262e-13 0)
(9.24587e-14 -7.77897e-14 0)
(8.20323e-14 -5.96373e-14 0)
(7.21559e-14 -4.62253e-14 0)
(8.34205e-13 -3.62725e-14 0)
(-8.74779e-13 -3.37225e-14 0)
(-8.43653e-14 -4.39913e-14 0)
(-9.89254e-14 -5.84507e-14 0)
(-1.15933e-13 -7.91412e-14 0)
(-1.34635e-13 -1.09084e-13 0)
(-1.52421e-13 -1.52421e-13 0)
(-1.63099e-13 -2.13691e-13 0)
(-1.55562e-13 -2.94254e-13 0)
(-1.16894e-13 -3.83123e-13 0)
(-4.41312e-14 -4.47137e-13 0)
(4.41312e-14 -4.47137e-13 0)
(1.16894e-13 -3.83123e-13 0)
(1.55562e-13 -2.94254e-13 0)
(1.63099e-13 -2.13691e-13 0)
(1.52421e-13 -1.52421e-13 0)
(1.34635e-13 -1.09084e-13 0)
(1.15933e-13 -7.91412e-14 0)
(9.89254e-14 -5.84507e-14 0)
(8.43653e-14 -4.39913e-14 0)
(8.74779e-13 -3.37225e-14 0)
(-9.11919e-13 -2.92919e-14 0)
(-9.68841e-14 -3.90651e-14 0)
(-1.17182e-13 -5.34199e-14 0)
(-1.43092e-13 -7.5132e-14 0)
(-1.75542e-13 -1.08967e-13 0)
(-2.13691e-13 -1.63099e-13 0)
(-2.508e-13 -2.508e-13 0)
(-2.66171e-13 -3.89205e-13 0)
(-2.21204e-13 -5.80733e-13 0)
(-8.88808e-14 -7.52919e-13 0)
(8.88808e-14 -7.52919e-13 0)
(2.21204e-13 -5.80733e-13 0)
(2.66171e-13 -3.89205e-13 0)
(2.508e-13 -2.508e-13 0)
(2.13691e-13 -1.63099e-13 0)
(1.75542e-13 -1.08967e-13 0)
(1.43092e-13 -7.5132e-14 0)
(1.17182e-13 -5.34199e-14 0)
(9.68841e-14 -3.90651e-14 0)
(9.11919e-13 -2.92919e-14 0)
(-9.43136e-13 -2.28556e-14 0)
(-1.08493e-13 -3.10678e-14 0)
(-1.34992e-13 -4.35826e-14 0)
(-1.7148e-13 -6.34835e-14 0)
(-2.22601e-13 -9.67398e-14 0)
(-2.94254e-13 -1.55562e-13 0)
(-3.89205e-13 -2.66171e-13 0)
(-4.85495e-13 -4.85495e-13 0)
(-4.80608e-13 -9.17336e-13 0)
(-2.16317e-13 -1.53604e-12 0)
(2.16317e-13 -1.53604e-12 0)
(4.80608e-13 -9.17336e-13 0)
(4.85495e-13 -4.85495e-13 0)
(3.89205e-13 -2.66171e-13 0)
(2.94254e-13 -1.55562e-13 0)
(2.22601e-13 -9.67398e-14 0)
(1.7148e-13 -6.34835e-14 0)
(1.34992e-13 -4.35826e-14 0)
(1.08493e-13 -3.10678e-14 0)
(9.43136e-13 -2.28556e-14 0)
(-9.65842e-13 -1.45881e-14 0)
(-1.17611e-13 -2.01115e-14 0)
(-1.49598e-13 -2.87642e-14 0)
(-1.96249e-13 -4.30628e-14 0)
(-2.67621e-13 -6.8321e-14 0)
(-3.83123e-13 -1.16894e-13 0)
(-5.80733e-13 -2.21204e-13 0)
(-9.17336e-13 -4.80608e-13 0)
(-1.27175e-12 -1.27175e-12 0)
(-7.07585e-13 -4.49012e-12 0)
(7.07585e-13 -4.49012e-12 0)
(1.27175e-12 -1.27175e-12 0)
(9.17336e-13 -4.80608e-13 0)
(5.80733e-13 -2.21204e-13 0)
(3.83123e-13 -1.16894e-13 0)
(2.67621e-13 -6.8321e-14 0)
(1.96249e-13 -4.30628e-14 0)
(1.49598e-13 -2.87642e-14 0)
(1.17611e-13 -2.01115e-14 0)
(9.65842e-13 -1.45881e-14 0)
(-9.77836e-13 -5.02014e-15 0)
(-1.22669e-13 -6.97324e-15 0)
(-1.57943e-13 -1.00785e-14 0)
(-2.11037e-13 -1.53188e-14 0)
(-2.96433e-13 -2.4867e-14 0)
(-4.47137e-13 -4.41312e-14 0)
(-7.52919e-13 -8.88808e-14 0)
(-1.53604e-12 -2.16317e-13 0)
(-4.49012e-12 -7.07585e-13 0)
(-3.43469e-12 -3.43469e-12 0)
(3.43469e-12 -3.43469e-12 0)
(4.49012e-12 -7.07585e-13 0)
(1.53604e-12 -2.16317e-13 0)
(7.52919e-13 -8.88808e-14 0)
(4.47137e-13 -4.41312e-14 0)
(2.96433e-13 -2.4867e-14 0)
(2.11037e-13 -1.53188e-14 0)
(1.57943e-13 -1.00785e-14 0)
(1.22669e-13 -6.97324e-15 0)
(9.77836e-13 -5.02014e-15 0)
(-9.77836e-13 5.02014e-15 0)
(-1.22669e-13 6.97324e-15 0)
(-1.57943e-13 1.00785e-14 0)
(-2.11037e-13 1.53188e-14 0)
(-2.96433e-13 2.4867e-14 0)
(-4.47137e-13 4.41312e-14 0)
(-7.52919e-13 8.88808e-14 0)
(-1.53604e-12 2.16317e-13 0)
(-4.49012e-12 7.07585e-13 0)
(-3.43469e-12 3.43469e-12 0)
(3.43469e-12 3.43469e-12 0)
(4.49012e-12 7.07585e-13 0)
(1.53604e-12 2.16317e-13 0)
(7.52919e-13 8.88808e-14 0)
(4.47137e-13 4.41312e-14 0)
(2.96433e-13 2.4867e-14 0)
(2.11037e-13 1.53188e-14 0)
(1.57943e-13 1.00785e-14 0)
(1.22669e-13 6.97324e-15 0)
(9.77836e-13 5.02014e-15 0)
(-9.65842e-13 1.45881e-14 0)
(-1.17611e-13 2.01115e-14 0)
(-1.49598e-13 2.87642e-14 0)
(-1.96249e-13 4.30628e-14 0)
(-2.67621e-13 6.8321e-14 0)
(-3.83123e-13 1.16894e-13 0)
(-5.80733e-13 2.21204e-13 0)
(-9.17336e-13 4.80608e-13 0)
(-1.27175e-12 1.27175e-12 0)
(-7.07585e-13 4.49012e-12 0)
(7.07585e-13 4.49012e-12 0)
(1.27175e-12 1.27175e-12 0)
(9.17336e-13 4.80608e-13 0)
(5.80733e-13 2.21204e-13 0)
(3.83123e-13 1.16894e-13 0)
(2.67621e-13 6.8321e-14 0)
(1.96249e-13 4.30628e-14 0)
(1.49598e-13 2.87642e-14 0)
(1.17611e-13 2.01115e-14 0)
(9.65842e-13 1.45881e-14 0)
(-9.43136e-13 2.28556e-14 0)
(-1.08493e-13 3.10678e-14 0)
(-1.34992e-13 4.35826e-14 0)
(-1.7148e-13 6.34835e-14 0)
(-2.22601e-13 9.67398e-14 0)
(-2.94254e-13 1.55562e-13 0)
(-3.89205e-13 2.66171e-13 0)
(-4.85495e-13 4.85495e-13 0)
(-4.80608e-13 9.17336e-13 0)
(-2.16317e-13 1.53604e-12 0)
(2.16317e-13 1.53604e-12 0)
(4.80608e-13 9.17336e-13 0)
(4.85495e-13 4.85495e-13 0)
(3.89205e-13 2.66171e-13 0)
(2.94254e-13 1.55562e-13 0)
(2.22601e-13 9.67398e-14 0)
(1.7148e-13 6.34835e-14 0)
(1.34992e-13 4.35826e-14 0)
(1.08493e-13 3.10678e-14 0)
(9.43136e-13 2.28556e-14 0)
(-9.11919e-13 2.92919e-14 0)
(-9.68841e-14 3.90651e-14 0)
(-1.17182e-13 5.34199e-14 0)
(-1.43092e-13 7.5132e-14 0)
(-1.75542e-13 1.08967e-13 0)
(-2.13691e-13 1.63099e-13 0)
(-2.508e-13 2.508e-13 0)
(-2.66171e-13 3.89205e-13 0)
(-2.21204e-13 5.80733e-13 0)
(-8.88808e-14 7.52919e-13 0)
(8.88808e-14 7.52919e-13 0)
(2.21204e-13 5.80733e-13 0)
(2.66171e-13 3.89205e-13 0)
(2.508e-13 2.508e-13 0)
(2.13691e-13 1.63099e-13 0)
(1.75542e-13 1.08967e-13 0)
(1.43092e-13 7.5132e-14 0)
(1.17182e-13 5.34199e-14 0)
(9.68841e-14 3.90651e-14 0)
(9.11919e-13 2.92919e-14 0)
(-8.74779e-13 3.37225e-14 0)
(-8.43653e-14 4.39913e-14 0)
(-9.89254e-14 5.84507e-14 0)
(-1.15933e-13 7.91412e-14 0)
(-1.34635e-13 1.09084e-13 0)
(-1.52421e-13 1.52421e-13 0)
(-1.63099e-13 2.13691e-13 0)
(-1.55562e-13 2.94254e-13 0)
(-1.16894e-13 3.83123e-13 0)
(-4.41312e-14 4.47137e-13 0)
(4.41312e-14 4.47137e-13 0)
(1.16894e-13 3.83123e-13 0)
(1.55562e-13 2.94254e-13 0)
(1.63099e-13 2.13691e-13 0)
(1.52421e-13 1.52421e-13 0)
(1.34635e-13 1.09084e-13 0)
(1.15933e-13 7.91412e-14 0)
(9.89254e-14 5.84507e-14 0)
(8.43653e-14 4.39913e-14 0)
(8.74779e-13 3.37225e-14 0)
(-8.34205e-13 3.62725e-14 0)
(-7.21559e-14 4.62253e-14 0)
(-8.20323e-14 5.96373e-14 0)
(-9.24587e-14 7.77897e-14 0)
(-1.02262e-13 1.02262e-13 0)
(-1.09084e-13 1.34635e-13 0)
(-1.08967e-13 1.75542e-13 0)
(-9.67398e-14 2.22601e-13 0)
(-6.8321e-14 2.67621e-13 0)
(-2.4867e-14 2.96433e-13 0)
(2.4867e-14 2.96433e-13 0)
(6.8321e-14 2.67621e-13 0)
(9.67398e-14 2.22601e-13 0)
(1.08967e-13 1.75542e-13 0)
(1.09084e-13 1.34635e-13 0)
(1.02262e-13 1.02262e-13 0)
(9.24587e-14 7.77897e-14 0)
(8.20323e-14 5.96373e-14 0)
(7.21559e-14 4.62253e-14 0)
(8.34205e-13 3.62725e-14 0)
(-7.92281e-13 3.72497e-14 0)
(-6.10004e-14 4.63815e-14 0)
(-6.7361e-14 5.81695e-14 0)
(-7.33085e-14 7.33085e-14 0)
(-7.77897e-14 9.24587e-14 0)
(-7.91412e-14 1.15933e-13 0)
(-7.5132e-14 1.43092e-13 0)
(-6.34835e-14 1.7148e-13 0)
(-4.30628e-14 1.96249e-13 0)
(-1.53188e-14 2.11037e-13 0)
(1.53188e-14 2.11037e-13 0)
(4.30628e-14 1.96249e-13 0)
(6.34835e-14 1.7148e-13 0)
(7.5132e-14 1.43092e-13 0)
(7.91412e-14 1.15933e-13 0)
(7.77897e-14 9.24587e-14 0)
(7.33085e-14 7.33085e-14 0)
(6.7361e-14 5.81695e-14 0)
(6.10004e-14 4.63815e-14 0)
(7.92281e-13 3.72497e-14 0)
(-7.50574e-13 3.70288e-14 0)
(-5.12361e-14 4.5099e-14 0)
(-5.51053e-14 5.51053e-14 0)
(-5.81695e-14 6.7361e-14 0)
(-5.96373e-14 8.20323e-14 0)
(-5.84507e-14 9.89254e-14 0)
(-5.34199e-14 1.17182e-13 0)
(-4.35826e-14 1.34992e-13 0)
(-2.87642e-14 1.49598e-13 0)
(-1.00785e-14 1.57943e-13 0)
(1.00785e-14 1.57943e-13 0)
(2.87642e-14 1.49598e-13 0)
(4.35826e-14 1.34992e-13 0)
(5.34199e-14 1.17182e-13 0)
(5.84507e-14 9.89254e-14 0)
(5.96373e-14 8.20323e-14 0)
(5.81695e-14 6.7361e-14 0)
(5.51053e-14 5.51053e-14 0)
(5.12361e-14 4.5099e-14 0)
(7.50574e-13 3.70288e-14 0)
(-7.10153e-13 3.59697e-14 0)
(-4.29239e-14 4.29239e-14 0)
(-4.5099e-14 5.12361e-14 0)
(-4.63815e-14 6.10004e-14 0)
(-4.62253e-14 7.21559e-14 0)
(-4.39913e-14 8.43653e-14 0)
(-3.90651e-14 9.68841e-14 0)
(-3.10678e-14 1.08493e-13 0)
(-2.01115e-14 1.17611e-13 0)
(-6.97324e-15 1.22669e-13 0)
(6.97324e-15 1.22669e-13 0)
(2.01115e-14 1.17611e-13 0)
(3.10678e-14 1.08493e-13 0)
(3.90651e-14 9.68841e-14 0)
(4.39913e-14 8.43653e-14 0)
(4.62253e-14 7.21559e-14 0)
(4.63815e-14 6.10004e-14 0)
(4.5099e-14 5.12361e-14 0)
(4.29239e-14 4.29239e-14 0)
(7.10153e-13 3.59697e-14 0)
(-6.7168e-13 6.7168e-13 0)
(-3.59697e-14 7.10153e-13 0)
(-3.70288e-14 7.50574e-13 0)
(-3.72497e-14 7.92281e-13 0)
(-3.62725e-14 8.34205e-13 0)
(-3.37225e-14 8.74779e-13 0)
(-2.92919e-14 9.11919e-13 0)
(-2.28556e-14 9.43136e-13 0)
(-1.45881e-14 9.65842e-13 0)
(-5.02014e-15 9.77836e-13 0)
(5.02014e-15 9.77836e-13 0)
(1.45881e-14 9.65842e-13 0)
(2.28556e-14 9.43136e-13 0)
(2.92919e-14 9.11919e-13 0)
(3.37225e-14 8.74779e-13 0)
(3.62725e-14 8.34205e-13 0)
(3.72497e-14 7.92281e-13 0)
(3.70288e-14 7.50574e-13 0)
(3.59697e-14 7.10153e-13 0)
(6.7168e-13 6.7168e-13 0)
)
;

boundaryField
{
    movingWall
    {
        type            fixedValue;
        value           uniform (1 0 0);
    }
    fixedWalls
    {
        type            fixedValue;
        value           uniform (0 0 0);
    }
    frontAndBack
    {
        type            empty;
    }
}


// ************************************************************************* //
