/*--------------------------------*- C++ -*----------------------------------*\
| =========                 |                                                 |
| \\      /  F ield         | OpenFOAM: The Open Source CFD Toolbox           |
|  \\    /   O peration     | Version:  v2012                                 |
|   \\  /    A nd           | Website:  www.openfoam.com                      |
|    \\/     M anipulation  |                                                 |
\*---------------------------------------------------------------------------*/
FoamFile
{
    version     2.0;
    format      ascii;
    class       volVectorField;
    location    "2.5";
    object      U;
}
// * * * * * * * * * * * * * * * * * * * * * * * * * * * * * * * * * * * * * //

dimensions      [0 1 -1 0 0 0 0];


internalField   nonuniform List<vector> 
400
(
(1.25285e-12 1.25285e-12 0)
(6.70923e-14 1.32461e-12 0)
(6.90677e-14 1.4e-12 0)
(6.94797e-14 1.4778e-12 0)
(6.7657e-14 1.55599e-12 0)
(6.29006e-14 1.63167e-12 0)
(5.46365e-14 1.70095e-12 0)
(4.26313e-14 1.75918e-12 0)
(2.72103e-14 1.80153e-12 0)
(9.36379e-15 1.8239e-12 0)
(-9.36379e-15 1.8239e-12 0)
(-2.72103e-14 1.80153e-12 0)
(-4.26313e-14 1.75918e-12 0)
(-5.46365e-14 1.70095e-12 0)
(-6.29006e-14 1.63167e-12 0)
(-6.7657e-14 1.55599e-12 0)
(-6.94797e-14 1.4778e-12 0)
(-6.90677e-14 1.4e-12 0)
(-6.70923e-14 1.32461e-12 0)
(-1.25285e-12 1.25285e-12 0)
(1.32461e-12 6.70923e-14 0)
(8.00635e-14 8.00635e-14 0)
(8.41206e-14 9.55677e-14 0)
(8.65128e-14 1.13781e-13 0)
(8.62215e-14 1.34588e-13 0)
(8.20544e-14 1.57362e-13 0)
(7.2866e-14 1.80712e-13 0)
(5.7949e-14 2.02366e-13 0)
(3.75129e-14 2.19373e-13 0)
(1.30068e-14 2.28808e-13 0)
(-1.30068e-14 2.28808e-13 0)
(-3.75129e-14 2.19373e-13 0)
(-5.7949e-14 2.02366e-13 0)
(-7.2866e-14 1.80712e-13 0)
(-8.20544e-14 1.57362e-13 0)
(-8.62215e-14 1.34588e-13 0)
(-8.65128e-14 1.13781e-13 0)
(-8.41206e-14 9.55677e-14 0)
(-8.00635e-14 8.00635e-14 0)
(-1.32461e-12 6.70923e-14 0)
(1.4e-12 6.90677e-14 0)
(9.55677e-14 8.41206e-14 0)
(1.02785e-13 1.02785e-13 0)
(1.085e-13 1.25645e-13 0)
(1.11238e-13 1.5301e-13 0)
(1.09025e-13 1.8452e-13 0)
(9.96411e-14 2.18573e-13 0)
(8.1292e-14 2.51793e-13 0)
(5.36522e-14 2.79036e-13 0)
(1.87988e-14 2.94603e-13 0)
(-1.87988e-14 2.94603e-13 0)
(-5.36522e-14 2.79036e-13 0)
(-8.1292e-14 2.51793e-13 0)
(-9.96411e-14 2.18573e-13 0)
(-1.09025e-13 1.8452e-13 0)
(-1.11238e-13 1.5301e-13 0)
(-1.085e-13 1.25645e-13 0)
(-1.02785e-13 1.02785e-13 0)
(-9.55677e-14 8.41206e-14 0)
(-1.4e-12 6.90677e-14 0)
(1.4778e-12 6.94797e-14 0)
(1.13781e-13 8.65128e-14 0)
(1.25645e-13 1.085e-13 0)
(1.36738e-13 1.36738e-13 0)
(1.45097e-13 1.72458e-13 0)
(1.47618e-13 2.16243e-13 0)
(1.40139e-13 2.66901e-13 0)
(1.18412e-13 3.19853e-13 0)
(8.03225e-14 3.66052e-13 0)
(2.85733e-14 3.93636e-13 0)
(-2.85733e-14 3.93636e-13 0)
(-8.03225e-14 3.66052e-13 0)
(-1.18412e-13 3.19853e-13 0)
(-1.40139e-13 2.66901e-13 0)
(-1.47618e-13 2.16243e-13 0)
(-1.45097e-13 1.72458e-13 0)
(-1.36738e-13 1.36738e-13 0)
(-1.25645e-13 1.085e-13 0)
(-1.13781e-13 8.65128e-14 0)
(-1.4778e-12 6.94797e-14 0)
(1.55599e-12 6.7657e-14 0)
(1.34588e-13 8.62215e-14 0)
(1.5301e-13 1.11238e-13 0)
(1.72458e-13 1.45097e-13 0)
(1.90743e-13 1.90743e-13 0)
(2.03467e-13 2.51126e-13 0)
(2.0325e-13 3.27429e-13 0)
(1.80443e-13 4.15206e-13 0)
(1.27435e-13 4.99177e-13 0)
(4.6383e-14 5.52919e-13 0)
(-4.6383e-14 5.52919e-13 0)
(-1.27435e-13 4.99177e-13 0)
(-1.80443e-13 4.15206e-13 0)
(-2.0325e-13 3.27429e-13 0)
(-2.03467e-13 2.51126e-13 0)
(-1.90743e-13 1.90743e-13 0)
(-1.72458e-13 1.45097e-13 0)
(-1.5301e-13 1.11238e-13 0)
(-1.34588e-13 8.62215e-14 0)
(-1.55599e-12 6.7657e-14 0)
(1.63167e-12 6.29006e-14 0)
(1.57362e-13 8.20544e-14 0)
(1.8452e-13 1.09025e-13 0)
(2.16243e-13 1.47618e-13 0)
(2.51126e-13 2.03467e-13 0)
(2.84303e-13 2.84303e-13 0)
(3.04219e-13 3.98586e-13 0)
(2.90161e-13 5.48855e-13 0)
(2.18036e-13 7.14617e-13 0)
(8.23153e-14 8.34018e-13 0)
(-8.23153e-14 8.34018e-13 0)
(-2.18036e-13 7.14617e-13 0)
(-2.90161e-13 5.48855e-13 0)
(-3.04219e-13 3.98586e-13 0)
(-2.84303e-13 2.84303e-13 0)
(-2.51126e-13 2.03467e-13 0)
(-2.16243e-13 1.47618e-13 0)
(-1.8452e-13 1.09025e-13 0)
(-1.57362e-13 8.20544e-14 0)
(-1.63167e-12 6.29006e-14 0)
(1.70095e-12 5.46365e-14 0)
(1.80712e-13 7.2866e-14 0)
(2.18573e-13 9.96411e-14 0)
(2.66901e-13 1.40139e-13 0)
(3.27429e-13 2.0325e-13 0)
(3.98586e-13 3.04219e-13 0)
(4.67803e-13 4.67803e-13 0)
(4.96474e-13 7.25961e-13 0)
(4.12599e-13 1.08321e-12 0)
(1.65784e-13 1.40438e-12 0)
(-1.65784e-13 1.40438e-12 0)
(-4.12599e-13 1.08321e-12 0)
(-4.96474e-13 7.25961e-13 0)
(-4.67803e-13 4.67803e-13 0)
(-3.98586e-13 3.04219e-13 0)
(-3.27429e-13 2.0325e-13 0)
(-2.66901e-13 1.40139e-13 0)
(-2.18573e-13 9.96411e-14 0)
(-1.80712e-13 7.2866e-14 0)
(-1.70095e-12 5.46365e-14 0)
(1.75918e-12 4.26313e-14 0)
(2.02366e-13 5.7949e-14 0)
(2.51793e-13 8.1292e-14 0)
(3.19853e-13 1.18412e-13 0)
(4.15206e-13 1.80443e-13 0)
(5.48855e-13 2.90161e-13 0)
(7.25961e-13 4.96474e-13 0)
(9.05567e-13 9.05567e-13 0)
(8.96451e-13 1.71105e-12 0)
(4.03483e-13 2.86509e-12 0)
(-4.03483e-13 2.86509e-12 0)
(-8.96451e-13 1.71105e-12 0)
(-9.05567e-13 9.05567e-13 0)
(-7.25961e-13 4.96474e-13 0)
(-5.48855e-13 2.90161e-13 0)
(-4.15206e-13 1.80443e-13 0)
(-3.19853e-13 1.18412e-13 0)
(-2.51793e-13 8.1292e-14 0)
(-2.02366e-13 5.7949e-14 0)
(-1.75918e-12 4.26313e-14 0)
(1.80153e-12 2.72103e-14 0)
(2.19373e-13 3.75129e-14 0)
(2.79036e-13 5.36522e-14 0)
(3.66052e-13 8.03225e-14 0)
(4.99177e-13 1.27435e-13 0)
(7.14617e-13 2.18036e-13 0)
(1.08321e-12 4.12599e-13 0)
(1.71105e-12 8.96451e-13 0)
(2.37212e-12 2.37212e-12 0)
(1.31982e-12 8.37517e-12 0)
(-1.31982e-12 8.37517e-12 0)
(-2.37212e-12 2.37212e-12 0)
(-1.71105e-12 8.96451e-13 0)
(-1.08321e-12 4.12599e-13 0)
(-7.14617e-13 2.18036e-13 0)
(-4.99177e-13 1.27435e-13 0)
(-3.66052e-13 8.03225e-14 0)
(-2.79036e-13 5.36522e-14 0)
(-2.19373e-13 3.75129e-14 0)
(-1.80153e-12 2.72103e-14 0)
(1.8239e-12 9.36379e-15 0)
(2.28808e-13 1.30068e-14 0)
(2.94603e-13 1.87988e-14 0)
(3.93636e-13 2.85733e-14 0)
(5.52919e-13 4.6383e-14 0)
(8.34018e-13 8.23153e-14 0)
(1.40438e-12 1.65784e-13 0)
(2.86509e-12 4.03483e-13 0)
(8.37517e-12 1.31982e-12 0)
(6.40653e-12 6.40653e-12 0)
(-6.40653e-12 6.40653e-12 0)
(-8.37517e-12 1.31982e-12 0)
(-2.86509e-12 4.03483e-13 0)
(-1.40438e-12 1.65784e-13 0)
(-8.34018e-13 8.23153e-14 0)
(-5.52919e-13 4.6383e-14 0)
(-3.93636e-13 2.85733e-14 0)
(-2.94603e-13 1.87988e-14 0)
(-2.28808e-13 1.30068e-14 0)
(-1.8239e-12 9.36379e-15 0)
(1.8239e-12 -9.36379e-15 0)
(2.28808e-13 -1.30068e-14 0)
(2.94603e-13 -1.87988e-14 0)
(3.93636e-13 -2.85733e-14 0)
(5.52919e-13 -4.6383e-14 0)
(8.34018e-13 -8.23153e-14 0)
(1.40438e-12 -1.65784e-13 0)
(2.86509e-12 -4.03483e-13 0)
(8.37517e-12 -1.31982e-12 0)
(6.40653e-12 -6.40653e-12 0)
(-6.40653e-12 -6.40653e-12 0)
(-8.37517e-12 -1.31982e-12 0)
(-2.86509e-12 -4.03483e-13 0)
(-1.40438e-12 -1.65784e-13 0)
(-8.34018e-13 -8.23153e-14 0)
(-5.52919e-13 -4.6383e-14 0)
(-3.93636e-13 -2.85733e-14 0)
(-2.94603e-13 -1.87988e-14 0)
(-2.28808e-13 -1.30068e-14 0)
(-1.8239e-12 -9.36379e-15 0)
(1.80153e-12 -2.72103e-14 0)
(2.19373e-13 -3.75129e-14 0)
(2.79036e-13 -5.36522e-14 0)
(3.66052e-13 -8.03225e-14 0)
(4.99177e-13 -1.27435e-13 0)
(7.14617e-13 -2.18036e-13 0)
(1.08321e-12 -4.12599e-13 0)
(1.71105e-12 -8.96451e-13 0)
(2.37212e-12 -2.37212e-12 0)
(1.31982e-12 -8.37517e-12 0)
(-1.31982e-12 -8.37517e-12 0)
(-2.37212e-12 -2.37212e-12 0)
(-1.71105e-12 -8.96451e-13 0)
(-1.08321e-12 -4.12599e-13 0)
(-7.14617e-13 -2.18036e-13 0)
(-4.99177e-13 -1.27435e-13 0)
(-3.66052e-13 -8.03225e-14 0)
(-2.79036e-13 -5.36522e-14 0)
(-2.19373e-13 -3.75129e-14 0)
(-1.80153e-12 -2.72103e-14 0)
(1.75918e-12 -4.26313e-14 0)
(2.02366e-13 -5.7949e-14 0)
(2.51793e-13 -8.1292e-14 0)
(3.19853e-13 -1.18412e-13 0)
(4.15206e-13 -1.80443e-13 0)
(5.48855e-13 -2.90161e-13 0)
(7.25961e-13 -4.96474e-13 0)
(9.05567e-13 -9.05567e-13 0)
(8.96451e-13 -1.71105e-12 0)
(4.03483e-13 -2.86509e-12 0)
(-4.03483e-13 -2.86509e-12 0)
(-8.96451e-13 -1.71105e-12 0)
(-9.05567e-13 -9.05567e-13 0)
(-7.25961e-13 -4.96474e-13 0)
(-5.48855e-13 -2.90161e-13 0)
(-4.15206e-13 -1.80443e-13 0)
(-3.19853e-13 -1.18412e-13 0)
(-2.51793e-13 -8.1292e-14 0)
(-2.02366e-13 -5.7949e-14 0)
(-1.75918e-12 -4.26313e-14 0)
(1.70095e-12 -5.46365e-14 0)
(1.80712e-13 -7.2866e-14 0)
(2.18573e-13 -9.96411e-14 0)
(2.66901e-13 -1.40139e-13 0)
(3.27429e-13 -2.0325e-13 0)
(3.98586e-13 -3.04219e-13 0)
(4.67803e-13 -4.67803e-13 0)
(4.96474e-13 -7.25961e-13 0)
(4.12599e-13 -1.08321e-12 0)
(1.65784e-13 -1.40438e-12 0)
(-1.65784e-13 -1.40438e-12 0)
(-4.12599e-13 -1.08321e-12 0)
(-4.96474e-13 -7.25961e-13 0)
(-4.67803e-13 -4.67803e-13 0)
(-3.98586e-13 -3.04219e-13 0)
(-3.27429e-13 -2.0325e-13 0)
(-2.66901e-13 -1.40139e-13 0)
(-2.18573e-13 -9.96411e-14 0)
(-1.80712e-13 -7.2866e-14 0)
(-1.70095e-12 -5.46365e-14 0)
(1.63167e-12 -6.29006e-14 0)
(1.57362e-13 -8.20544e-14 0)
(1.8452e-13 -1.09025e-13 0)
(2.16243e-13 -1.47618e-13 0)
(2.51126e-13 -2.03467e-13 0)
(2.84303e-13 -2.84303e-13 0)
(3.04219e-13 -3.98586e-13 0)
(2.90161e-13 -5.48855e-13 0)
(2.18036e-13 -7.14617e-13 0)
(8.23153e-14 -8.34018e-13 0)
(-8.23153e-14 -8.34018e-13 0)
(-2.18036e-13 -7.14617e-13 0)
(-2.90161e-13 -5.48855e-13 0)
(-3.04219e-13 -3.98586e-13 0)
(-2.84303e-13 -2.84303e-13 0)
(-2.51126e-13 -2.03467e-13 0)
(-2.16243e-13 -1.47618e-13 0)
(-1.8452e-13 -1.09025e-13 0)
(-1.57362e-13 -8.20544e-14 0)
(-1.63167e-12 -6.29006e-14 0)
(1.55599e-12 -6.7657e-14 0)
(1.34588e-13 -8.62215e-14 0)
(1.5301e-13 -1.11238e-13 0)
(1.72458e-13 -1.45097e-13 0)
(1.90743e-13 -1.90743e-13 0)
(2.03467e-13 -2.51126e-13 0)
(2.0325e-13 -3.27429e-13 0)
(1.80443e-13 -4.15206e-13 0)
(1.27435e-13 -4.99177e-13 0)
(4.6383e-14 -5.52919e-13 0)
(-4.6383e-14 -5.52919e-13 0)
(-1.27435e-13 -4.99177e-13 0)
(-1.80443e-13 -4.15206e-13 0)
(-2.0325e-13 -3.27429e-13 0)
(-2.03467e-13 -2.51126e-13 0)
(-1.90743e-13 -1.90743e-13 0)
(-1.72458e-13 -1.45097e-13 0)
(-1.5301e-13 -1.11238e-13 0)
(-1.34588e-13 -8.62215e-14 0)
(-1.55599e-12 -6.7657e-14 0)
(1.4778e-12 -6.94797e-14 0)
(1.13781e-13 -8.65128e-14 0)
(1.25645e-13 -1.085e-13 0)
(1.36738e-13 -1.36738e-13 0)
(1.45097e-13 -1.72458e-13 0)
(1.47618e-13 -2.16243e-13 0)
(1.40139e-13 -2.66901e-13 0)
(1.18412e-13 -3.19853e-13 0)
(8.03225e-14 -3.66052e-13 0)
(2.85733e-14 -3.93636e-13 0)
(-2.85733e-14 -3.93636e-13 0)
(-8.03225e-14 -3.66052e-13 0)
(-1.18412e-13 -3.19853e-13 0)
(-1.40139e-13 -2.66901e-13 0)
(-1.47618e-13 -2.16243e-13 0)
(-1.45097e-13 -1.72458e-13 0)
(-1.36738e-13 -1.36738e-13 0)
(-1.25645e-13 -1.085e-13 0)
(-1.13781e-13 -8.65128e-14 0)
(-1.4778e-12 -6.94797e-14 0)
(1.4e-12 -6.90677e-14 0)
(9.55677e-14 -8.41206e-14 0)
(1.02785e-13 -1.02785e-13 0)
(1.085e-13 -1.25645e-13 0)
(1.11238e-13 -1.5301e-13 0)
(1.09025e-13 -1.8452e-13 0)
(9.96411e-14 -2.18573e-13 0)
(8.1292e-14 -2.51793e-13 0)
(5.36522e-14 -2.79036e-13 0)
(1.87988e-14 -2.94603e-13 0)
(-1.87988e-14 -2.94603e-13 0)
(-5.36522e-14 -2.79036e-13 0)
(-8.1292e-14 -2.51793e-13 0)
(-9.96411e-14 -2.18573e-13 0)
(-1.09025e-13 -1.8452e-13 0)
(-1.11238e-13 -1.5301e-13 0)
(-1.085e-13 -1.25645e-13 0)
(-1.02785e-13 -1.02785e-13 0)
(-9.55677e-14 -8.41206e-14 0)
(-1.4e-12 -6.90677e-14 0)
(1.32461e-12 -6.70923e-14 0)
(8.00635e-14 -8.00635e-14 0)
(8.41206e-14 -9.55677e-14 0)
(8.65128e-14 -1.13781e-13 0)
(8.62215e-14 -1.34588e-13 0)
(8.20544e-14 -1.57362e-13 0)
(7.2866e-14 -1.80712e-13 0)
(5.7949e-14 -2.02366e-13 0)
(3.75129e-14 -2.19373e-13 0)
(1.30068e-14 -2.28808e-13 0)
(-1.30068e-14 -2.28808e-13 0)
(-3.75129e-14 -2.19373e-13 0)
(-5.7949e-14 -2.02366e-13 0)
(-7.2866e-14 -1.80712e-13 0)
(-8.20544e-14 -1.57362e-13 0)
(-8.62215e-14 -1.34588e-13 0)
(-8.65128e-14 -1.13781e-13 0)
(-8.41206e-14 -9.55677e-14 0)
(-8.00635e-14 -8.00635e-14 0)
(-1.32461e-12 -6.70923e-14 0)
(1.25285e-12 -1.25285e-12 0)
(6.70923e-14 -1.32461e-12 0)
(6.90677e-14 -1.4e-12 0)
(6.94797e-14 -1.4778e-12 0)
(6.7657e-14 -1.55599e-12 0)
(6.29006e-14 -1.63167e-12 0)
(5.46365e-14 -1.70095e-12 0)
(4.26313e-14 -1.75918e-12 0)
(2.72103e-14 -1.80153e-12 0)
(9.36379e-15 -1.8239e-12 0)
(-9.36379e-15 -1.8239e-12 0)
(-2.72103e-14 -1.80153e-12 0)
(-4.26313e-14 -1.75918e-12 0)
(-5.46365e-14 -1.70095e-12 0)
(-6.29006e-14 -1.63167e-12 0)
(-6.7657e-14 -1.55599e-12 0)
(-6.94797e-14 -1.4778e-12 0)
(-6.90677e-14 -1.4e-12 0)
(-6.70923e-14 -1.32461e-12 0)
(-1.25285e-12 -1.25285e-12 0)
)
;

boundaryField
{
    movingWall
    {
        type            fixedValue;
        value           uniform (1 0 0);
    }
    fixedWalls
    {
        type            fixedValue;
        value           uniform (0 0 0);
    }
    frontAndBack
    {
        type            empty;
    }
}


// ************************************************************************* //
