/*--------------------------------*- C++ -*----------------------------------*\
| =========                 |                                                 |
| \\      /  F ield         | OpenFOAM: The Open Source CFD Toolbox           |
|  \\    /   O peration     | Version:  v2012                                 |
|   \\  /    A nd           | Website:  www.openfoam.com                      |
|    \\/     M anipulation  |                                                 |
\*---------------------------------------------------------------------------*/
FoamFile
{
    version     2.0;
    format      ascii;
    class       volVectorField;
    location    "7";
    object      U;
}
// * * * * * * * * * * * * * * * * * * * * * * * * * * * * * * * * * * * * * //

dimensions      [0 1 -1 0 0 0 0];


internalField   nonuniform List<vector> 
400
(
(-2.28361e-11 -2.28361e-11 0)
(-1.22292e-12 -2.41441e-11 0)
(-1.25892e-12 -2.55183e-11 0)
(-1.26643e-12 -2.69363e-11 0)
(-1.23321e-12 -2.83617e-11 0)
(-1.14651e-12 -2.97411e-11 0)
(-9.95878e-13 -3.10038e-11 0)
(-7.77056e-13 -3.20652e-11 0)
(-4.95973e-13 -3.28371e-11 0)
(-1.70677e-13 -3.32449e-11 0)
(1.70677e-13 -3.32449e-11 0)
(4.95973e-13 -3.28371e-11 0)
(7.77056e-13 -3.20652e-11 0)
(9.95878e-13 -3.10038e-11 0)
(1.14651e-12 -2.97411e-11 0)
(1.23321e-12 -2.83617e-11 0)
(1.26643e-12 -2.69363e-11 0)
(1.25892e-12 -2.55183e-11 0)
(1.22292e-12 -2.41441e-11 0)
(2.28361e-11 -2.28361e-11 0)
(-2.41441e-11 -1.22292e-12 0)
(-1.45935e-12 -1.45935e-12 0)
(-1.5333e-12 -1.74195e-12 0)
(-1.5769e-12 -2.07392e-12 0)
(-1.57159e-12 -2.45319e-12 0)
(-1.49563e-12 -2.86829e-12 0)
(-1.32815e-12 -3.29391e-12 0)
(-1.05626e-12 -3.6886e-12 0)
(-6.83761e-13 -3.99859e-12 0)
(-2.37079e-13 -4.17057e-12 0)
(2.37079e-13 -4.17057e-12 0)
(6.83761e-13 -3.99859e-12 0)
(1.05626e-12 -3.6886e-12 0)
(1.32815e-12 -3.29391e-12 0)
(1.49563e-12 -2.86829e-12 0)
(1.57159e-12 -2.45319e-12 0)
(1.5769e-12 -2.07392e-12 0)
(1.5333e-12 -1.74195e-12 0)
(1.45935e-12 -1.45935e-12 0)
(2.41441e-11 -1.22292e-12 0)
(-2.55183e-11 -1.25892e-12 0)
(-1.74195e-12 -1.5333e-12 0)
(-1.87349e-12 -1.87349e-12 0)
(-1.97767e-12 -2.29017e-12 0)
(-2.02758e-12 -2.78897e-12 0)
(-1.98723e-12 -3.36331e-12 0)
(-1.81619e-12 -3.98401e-12 0)
(-1.48174e-12 -4.58953e-12 0)
(-9.77937e-13 -5.0861e-12 0)
(-3.42653e-13 -5.36983e-12 0)
(3.42653e-13 -5.36983e-12 0)
(9.77937e-13 -5.0861e-12 0)
(1.48174e-12 -4.58953e-12 0)
(1.81619e-12 -3.98401e-12 0)
(1.98723e-12 -3.36331e-12 0)
(2.02758e-12 -2.78897e-12 0)
(1.97767e-12 -2.29017e-12 0)
(1.87349e-12 -1.87349e-12 0)
(1.74195e-12 -1.5333e-12 0)
(2.55183e-11 -1.25892e-12 0)
(-2.69363e-11 -1.26643e-12 0)
(-2.07392e-12 -1.5769e-12 0)
(-2.29017e-12 -1.97767e-12 0)
(-2.49238e-12 -2.49238e-12 0)
(-2.64473e-12 -3.14345e-12 0)
(-2.69068e-12 -3.94154e-12 0)
(-2.55437e-12 -4.86489e-12 0)
(-2.15834e-12 -5.83007e-12 0)
(-1.46407e-12 -6.67216e-12 0)
(-5.20816e-13 -7.17494e-12 0)
(5.20816e-13 -7.17494e-12 0)
(1.46407e-12 -6.67216e-12 0)
(2.15834e-12 -5.83007e-12 0)
(2.55437e-12 -4.86489e-12 0)
(2.69068e-12 -3.94154e-12 0)
(2.64473e-12 -3.14345e-12 0)
(2.49238e-12 -2.49238e-12 0)
(2.29017e-12 -1.97767e-12 0)
(2.07392e-12 -1.5769e-12 0)
(2.69363e-11 -1.26643e-12 0)
(-2.83617e-11 -1.23321e-12 0)
(-2.45319e-12 -1.57159e-12 0)
(-2.78897e-12 -2.02758e-12 0)
(-3.14345e-12 -2.64473e-12 0)
(-3.47674e-12 -3.47674e-12 0)
(-3.70867e-12 -4.57737e-12 0)
(-3.70472e-12 -5.96816e-12 0)
(-3.289e-12 -7.5681e-12 0)
(-2.32281e-12 -9.09868e-12 0)
(-8.45439e-13 -1.00783e-11 0)
(8.45439e-13 -1.00783e-11 0)
(2.32281e-12 -9.09868e-12 0)
(3.289e-12 -7.5681e-12 0)
(3.70472e-12 -5.96816e-12 0)
(3.70867e-12 -4.57737e-12 0)
(3.47674e-12 -3.47674e-12 0)
(3.14345e-12 -2.64473e-12 0)
(2.78897e-12 -2.02758e-12 0)
(2.45319e-12 -1.57159e-12 0)
(2.83617e-11 -1.23321e-12 0)
(-2.97411e-11 -1.14651e-12 0)
(-2.86829e-12 -1.49563e-12 0)
(-3.36331e-12 -1.98723e-12 0)
(-3.94154e-12 -2.69068e-12 0)
(-4.57737e-12 -3.70867e-12 0)
(-5.18209e-12 -5.18209e-12 0)
(-5.5451e-12 -7.26517e-12 0)
(-5.28886e-12 -1.00042e-11 0)
(-3.97422e-12 -1.30256e-11 0)
(-1.50039e-12 -1.5202e-11 0)
(1.50039e-12 -1.5202e-11 0)
(3.97422e-12 -1.30256e-11 0)
(5.28886e-12 -1.00042e-11 0)
(5.5451e-12 -7.26517e-12 0)
(5.18209e-12 -5.18209e-12 0)
(4.57737e-12 -3.70867e-12 0)
(3.94154e-12 -2.69068e-12 0)
(3.36331e-12 -1.98723e-12 0)
(2.86829e-12 -1.49563e-12 0)
(2.97411e-11 -1.14651e-12 0)
(-3.10038e-11 -9.95878e-13 0)
(-3.29391e-12 -1.32815e-12 0)
(-3.98401e-12 -1.81619e-12 0)
(-4.86489e-12 -2.55437e-12 0)
(-5.96816e-12 -3.70472e-12 0)
(-7.26517e-12 -5.5451e-12 0)
(-8.5268e-12 -8.5268e-12 0)
(-9.04942e-12 -1.32324e-11 0)
(-7.52059e-12 -1.9744e-11 0)
(-3.02181e-12 -2.55981e-11 0)
(3.02181e-12 -2.55981e-11 0)
(7.52059e-12 -1.9744e-11 0)
(9.04942e-12 -1.32324e-11 0)
(8.5268e-12 -8.5268e-12 0)
(7.26517e-12 -5.5451e-12 0)
(5.96816e-12 -3.70472e-12 0)
(4.86489e-12 -2.55437e-12 0)
(3.98401e-12 -1.81619e-12 0)
(3.29391e-12 -1.32815e-12 0)
(3.10038e-11 -9.95878e-13 0)
(-3.20652e-11 -7.77056e-13 0)
(-3.6886e-12 -1.05626e-12 0)
(-4.58953e-12 -1.48174e-12 0)
(-5.83007e-12 -2.15834e-12 0)
(-7.5681e-12 -3.289e-12 0)
(-1.00042e-11 -5.28886e-12 0)
(-1.32324e-11 -9.04942e-12 0)
(-1.65061e-11 -1.65061e-11 0)
(-1.63399e-11 -3.1188e-11 0)
(-7.35443e-12 -5.2223e-11 0)
(7.35443e-12 -5.2223e-11 0)
(1.63399e-11 -3.1188e-11 0)
(1.65061e-11 -1.65061e-11 0)
(1.32324e-11 -9.04942e-12 0)
(1.00042e-11 -5.28886e-12 0)
(7.5681e-12 -3.289e-12 0)
(5.83007e-12 -2.15834e-12 0)
(4.58953e-12 -1.48174e-12 0)
(3.6886e-12 -1.05626e-12 0)
(3.20652e-11 -7.77056e-13 0)
(-3.28371e-11 -4.95973e-13 0)
(-3.99859e-12 -6.83761e-13 0)
(-5.0861e-12 -9.77937e-13 0)
(-6.67216e-12 -1.46407e-12 0)
(-9.09868e-12 -2.32281e-12 0)
(-1.30256e-11 -3.97422e-12 0)
(-1.9744e-11 -7.52059e-12 0)
(-3.1188e-11 -1.63399e-11 0)
(-4.32375e-11 -4.32375e-11 0)
(-2.40568e-11 -1.52657e-10 0)
(2.40568e-11 -1.52657e-10 0)
(4.32375e-11 -4.32375e-11 0)
(3.1188e-11 -1.63399e-11 0)
(1.9744e-11 -7.52059e-12 0)
(1.30256e-11 -3.97422e-12 0)
(9.09868e-12 -2.32281e-12 0)
(6.67216e-12 -1.46407e-12 0)
(5.0861e-12 -9.77937e-13 0)
(3.99859e-12 -6.83761e-13 0)
(3.28371e-11 -4.95973e-13 0)
(-3.32449e-11 -1.70677e-13 0)
(-4.17057e-12 -2.37079e-13 0)
(-5.36983e-12 -3.42653e-13 0)
(-7.17494e-12 -5.20816e-13 0)
(-1.00783e-11 -8.45439e-13 0)
(-1.5202e-11 -1.50039e-12 0)
(-2.55981e-11 -3.02181e-12 0)
(-5.2223e-11 -7.35443e-12 0)
(-1.52657e-10 -2.40568e-11 0)
(-1.16774e-10 -1.16774e-10 0)
(1.16774e-10 -1.16774e-10 0)
(1.52657e-10 -2.40568e-11 0)
(5.2223e-11 -7.35443e-12 0)
(2.55981e-11 -3.02181e-12 0)
(1.5202e-11 -1.50039e-12 0)
(1.00783e-11 -8.45439e-13 0)
(7.17494e-12 -5.20816e-13 0)
(5.36983e-12 -3.42653e-13 0)
(4.17057e-12 -2.37079e-13 0)
(3.32449e-11 -1.70677e-13 0)
(-3.32449e-11 1.70677e-13 0)
(-4.17057e-12 2.37079e-13 0)
(-5.36983e-12 3.42653e-13 0)
(-7.17494e-12 5.20816e-13 0)
(-1.00783e-11 8.45439e-13 0)
(-1.5202e-11 1.50039e-12 0)
(-2.55981e-11 3.02181e-12 0)
(-5.2223e-11 7.35443e-12 0)
(-1.52657e-10 2.40568e-11 0)
(-1.16774e-10 1.16774e-10 0)
(1.16774e-10 1.16774e-10 0)
(1.52657e-10 2.40568e-11 0)
(5.2223e-11 7.35443e-12 0)
(2.55981e-11 3.02181e-12 0)
(1.5202e-11 1.50039e-12 0)
(1.00783e-11 8.45439e-13 0)
(7.17494e-12 5.20816e-13 0)
(5.36983e-12 3.42653e-13 0)
(4.17057e-12 2.37079e-13 0)
(3.32449e-11 1.70677e-13 0)
(-3.28371e-11 4.95973e-13 0)
(-3.99859e-12 6.83761e-13 0)
(-5.0861e-12 9.77937e-13 0)
(-6.67216e-12 1.46407e-12 0)
(-9.09868e-12 2.32281e-12 0)
(-1.30256e-11 3.97422e-12 0)
(-1.9744e-11 7.52059e-12 0)
(-3.1188e-11 1.63399e-11 0)
(-4.32375e-11 4.32375e-11 0)
(-2.40568e-11 1.52657e-10 0)
(2.40568e-11 1.52657e-10 0)
(4.32375e-11 4.32375e-11 0)
(3.1188e-11 1.63399e-11 0)
(1.9744e-11 7.52059e-12 0)
(1.30256e-11 3.97422e-12 0)
(9.09868e-12 2.32281e-12 0)
(6.67216e-12 1.46407e-12 0)
(5.0861e-12 9.77937e-13 0)
(3.99859e-12 6.83761e-13 0)
(3.28371e-11 4.95973e-13 0)
(-3.20652e-11 7.77056e-13 0)
(-3.6886e-12 1.05626e-12 0)
(-4.58953e-12 1.48174e-12 0)
(-5.83007e-12 2.15834e-12 0)
(-7.5681e-12 3.289e-12 0)
(-1.00042e-11 5.28886e-12 0)
(-1.32324e-11 9.04942e-12 0)
(-1.65061e-11 1.65061e-11 0)
(-1.63399e-11 3.1188e-11 0)
(-7.35443e-12 5.2223e-11 0)
(7.35443e-12 5.2223e-11 0)
(1.63399e-11 3.1188e-11 0)
(1.65061e-11 1.65061e-11 0)
(1.32324e-11 9.04942e-12 0)
(1.00042e-11 5.28886e-12 0)
(7.5681e-12 3.289e-12 0)
(5.83007e-12 2.15834e-12 0)
(4.58953e-12 1.48174e-12 0)
(3.6886e-12 1.05626e-12 0)
(3.20652e-11 7.77056e-13 0)
(-3.10038e-11 9.95878e-13 0)
(-3.29391e-12 1.32815e-12 0)
(-3.98401e-12 1.81619e-12 0)
(-4.86489e-12 2.55437e-12 0)
(-5.96816e-12 3.70472e-12 0)
(-7.26517e-12 5.5451e-12 0)
(-8.5268e-12 8.5268e-12 0)
(-9.04942e-12 1.32324e-11 0)
(-7.52059e-12 1.9744e-11 0)
(-3.02181e-12 2.55981e-11 0)
(3.02181e-12 2.55981e-11 0)
(7.52059e-12 1.9744e-11 0)
(9.04942e-12 1.32324e-11 0)
(8.5268e-12 8.5268e-12 0)
(7.26517e-12 5.5451e-12 0)
(5.96816e-12 3.70472e-12 0)
(4.86489e-12 2.55437e-12 0)
(3.98401e-12 1.81619e-12 0)
(3.29391e-12 1.32815e-12 0)
(3.10038e-11 9.95878e-13 0)
(-2.97411e-11 1.14651e-12 0)
(-2.86829e-12 1.49563e-12 0)
(-3.36331e-12 1.98723e-12 0)
(-3.94154e-12 2.69068e-12 0)
(-4.57737e-12 3.70867e-12 0)
(-5.18209e-12 5.18209e-12 0)
(-5.5451e-12 7.26517e-12 0)
(-5.28886e-12 1.00042e-11 0)
(-3.97422e-12 1.30256e-11 0)
(-1.50039e-12 1.5202e-11 0)
(1.50039e-12 1.5202e-11 0)
(3.97422e-12 1.30256e-11 0)
(5.28886e-12 1.00042e-11 0)
(5.5451e-12 7.26517e-12 0)
(5.18209e-12 5.18209e-12 0)
(4.57737e-12 3.70867e-12 0)
(3.94154e-12 2.69068e-12 0)
(3.36331e-12 1.98723e-12 0)
(2.86829e-12 1.49563e-12 0)
(2.97411e-11 1.14651e-12 0)
(-2.83617e-11 1.23321e-12 0)
(-2.45319e-12 1.57159e-12 0)
(-2.78897e-12 2.02758e-12 0)
(-3.14345e-12 2.64473e-12 0)
(-3.47674e-12 3.47674e-12 0)
(-3.70867e-12 4.57737e-12 0)
(-3.70472e-12 5.96816e-12 0)
(-3.289e-12 7.5681e-12 0)
(-2.32281e-12 9.09868e-12 0)
(-8.45439e-13 1.00783e-11 0)
(8.45439e-13 1.00783e-11 0)
(2.32281e-12 9.09868e-12 0)
(3.289e-12 7.5681e-12 0)
(3.70472e-12 5.96816e-12 0)
(3.70867e-12 4.57737e-12 0)
(3.47674e-12 3.47674e-12 0)
(3.14345e-12 2.64473e-12 0)
(2.78897e-12 2.02758e-12 0)
(2.45319e-12 1.57159e-12 0)
(2.83617e-11 1.23321e-12 0)
(-2.69363e-11 1.26643e-12 0)
(-2.07392e-12 1.5769e-12 0)
(-2.29017e-12 1.97767e-12 0)
(-2.49238e-12 2.49238e-12 0)
(-2.64473e-12 3.14345e-12 0)
(-2.69068e-12 3.94154e-12 0)
(-2.55437e-12 4.86489e-12 0)
(-2.15834e-12 5.83007e-12 0)
(-1.46407e-12 6.67216e-12 0)
(-5.20816e-13 7.17494e-12 0)
(5.20816e-13 7.17494e-12 0)
(1.46407e-12 6.67216e-12 0)
(2.15834e-12 5.83007e-12 0)
(2.55437e-12 4.86489e-12 0)
(2.69068e-12 3.94154e-12 0)
(2.64473e-12 3.14345e-12 0)
(2.49238e-12 2.49238e-12 0)
(2.29017e-12 1.97767e-12 0)
(2.07392e-12 1.5769e-12 0)
(2.69363e-11 1.26643e-12 0)
(-2.55183e-11 1.25892e-12 0)
(-1.74195e-12 1.5333e-12 0)
(-1.87349e-12 1.87349e-12 0)
(-1.97767e-12 2.29017e-12 0)
(-2.02758e-12 2.78897e-12 0)
(-1.98723e-12 3.36331e-12 0)
(-1.81619e-12 3.98401e-12 0)
(-1.48174e-12 4.58953e-12 0)
(-9.77937e-13 5.0861e-12 0)
(-3.42653e-13 5.36983e-12 0)
(3.42653e-13 5.36983e-12 0)
(9.77937e-13 5.0861e-12 0)
(1.48174e-12 4.58953e-12 0)
(1.81619e-12 3.98401e-12 0)
(1.98723e-12 3.36331e-12 0)
(2.02758e-12 2.78897e-12 0)
(1.97767e-12 2.29017e-12 0)
(1.87349e-12 1.87349e-12 0)
(1.74195e-12 1.5333e-12 0)
(2.55183e-11 1.25892e-12 0)
(-2.41441e-11 1.22292e-12 0)
(-1.45935e-12 1.45935e-12 0)
(-1.5333e-12 1.74195e-12 0)
(-1.5769e-12 2.07392e-12 0)
(-1.57159e-12 2.45319e-12 0)
(-1.49563e-12 2.86829e-12 0)
(-1.32815e-12 3.29391e-12 0)
(-1.05626e-12 3.6886e-12 0)
(-6.83761e-13 3.99859e-12 0)
(-2.37079e-13 4.17057e-12 0)
(2.37079e-13 4.17057e-12 0)
(6.83761e-13 3.99859e-12 0)
(1.05626e-12 3.6886e-12 0)
(1.32815e-12 3.29391e-12 0)
(1.49563e-12 2.86829e-12 0)
(1.57159e-12 2.45319e-12 0)
(1.5769e-12 2.07392e-12 0)
(1.5333e-12 1.74195e-12 0)
(1.45935e-12 1.45935e-12 0)
(2.41441e-11 1.22292e-12 0)
(-2.28361e-11 2.28361e-11 0)
(-1.22292e-12 2.41441e-11 0)
(-1.25892e-12 2.55183e-11 0)
(-1.26643e-12 2.69363e-11 0)
(-1.23321e-12 2.83617e-11 0)
(-1.14651e-12 2.97411e-11 0)
(-9.95878e-13 3.10038e-11 0)
(-7.77056e-13 3.20652e-11 0)
(-4.95973e-13 3.28371e-11 0)
(-1.70677e-13 3.32449e-11 0)
(1.70677e-13 3.32449e-11 0)
(4.95973e-13 3.28371e-11 0)
(7.77056e-13 3.20652e-11 0)
(9.95878e-13 3.10038e-11 0)
(1.14651e-12 2.97411e-11 0)
(1.23321e-12 2.83617e-11 0)
(1.26643e-12 2.69363e-11 0)
(1.25892e-12 2.55183e-11 0)
(1.22292e-12 2.41441e-11 0)
(2.28361e-11 2.28361e-11 0)
)
;

boundaryField
{
    movingWall
    {
        type            fixedValue;
        value           uniform (1 0 0);
    }
    fixedWalls
    {
        type            fixedValue;
        value           uniform (0 0 0);
    }
    frontAndBack
    {
        type            empty;
    }
}


// ************************************************************************* //
