/*--------------------------------*- C++ -*----------------------------------*\
| =========                 |                                                 |
| \\      /  F ield         | OpenFOAM: The Open Source CFD Toolbox           |
|  \\    /   O peration     | Version:  v2012                                 |
|   \\  /    A nd           | Website:  www.openfoam.com                      |
|    \\/     M anipulation  |                                                 |
\*---------------------------------------------------------------------------*/
FoamFile
{
    version     2.0;
    format      ascii;
    class       volVectorField;
    location    "6.5";
    object      U;
}
// * * * * * * * * * * * * * * * * * * * * * * * * * * * * * * * * * * * * * //

dimensions      [0 1 -1 0 0 0 0];


internalField   nonuniform List<vector> 
400
(
(2.05628e-11 2.05628e-11 0)
(1.10118e-12 2.17406e-11 0)
(1.1336e-12 2.2978e-11 0)
(1.14036e-12 2.42549e-11 0)
(1.11044e-12 2.55383e-11 0)
(1.03238e-12 2.67805e-11 0)
(8.96741e-13 2.79175e-11 0)
(6.99702e-13 2.88731e-11 0)
(4.466e-13 2.95683e-11 0)
(1.53687e-13 2.99354e-11 0)
(-1.53687e-13 2.99354e-11 0)
(-4.466e-13 2.95683e-11 0)
(-6.99702e-13 2.88731e-11 0)
(-8.96741e-13 2.79175e-11 0)
(-1.03238e-12 2.67805e-11 0)
(-1.11044e-12 2.55383e-11 0)
(-1.14036e-12 2.42549e-11 0)
(-1.1336e-12 2.2978e-11 0)
(-1.10118e-12 2.17406e-11 0)
(-2.05628e-11 2.05628e-11 0)
(2.17406e-11 1.10118e-12 0)
(1.31407e-12 1.31407e-12 0)
(1.38066e-12 1.56854e-12 0)
(1.41992e-12 1.86747e-12 0)
(1.41514e-12 2.20898e-12 0)
(1.34675e-12 2.58276e-12 0)
(1.19594e-12 2.96601e-12 0)
(9.51109e-13 3.32141e-12 0)
(6.15694e-13 3.60054e-12 0)
(2.13479e-13 3.7554e-12 0)
(-2.13479e-13 3.7554e-12 0)
(-6.15694e-13 3.60054e-12 0)
(-9.51109e-13 3.32141e-12 0)
(-1.19594e-12 2.96601e-12 0)
(-1.34675e-12 2.58276e-12 0)
(-1.41514e-12 2.20898e-12 0)
(-1.41992e-12 1.86747e-12 0)
(-1.38066e-12 1.56854e-12 0)
(-1.31407e-12 1.31407e-12 0)
(-2.17406e-11 1.10118e-12 0)
(2.2978e-11 1.1336e-12 0)
(1.56854e-12 1.38066e-12 0)
(1.68699e-12 1.68699e-12 0)
(1.7808e-12 2.06219e-12 0)
(1.82574e-12 2.51134e-12 0)
(1.78941e-12 3.0285e-12 0)
(1.6354e-12 3.58741e-12 0)
(1.33424e-12 4.13265e-12 0)
(8.80586e-13 4.57979e-12 0)
(3.08543e-13 4.83528e-12 0)
(-3.08543e-13 4.83528e-12 0)
(-8.80586e-13 4.57979e-12 0)
(-1.33424e-12 4.13265e-12 0)
(-1.6354e-12 3.58741e-12 0)
(-1.78941e-12 3.0285e-12 0)
(-1.82574e-12 2.51134e-12 0)
(-1.7808e-12 2.06219e-12 0)
(-1.68699e-12 1.68699e-12 0)
(-1.56854e-12 1.38066e-12 0)
(-2.2978e-11 1.1336e-12 0)
(2.42549e-11 1.14036e-12 0)
(1.86747e-12 1.41992e-12 0)
(2.06219e-12 1.7808e-12 0)
(2.24427e-12 2.24427e-12 0)
(2.38145e-12 2.83053e-12 0)
(2.42283e-12 3.54917e-12 0)
(2.30009e-12 4.3806e-12 0)
(1.94348e-12 5.2497e-12 0)
(1.31832e-12 6.00796e-12 0)
(4.6897e-13 6.46069e-12 0)
(-4.6897e-13 6.46069e-12 0)
(-1.31832e-12 6.00796e-12 0)
(-1.94348e-12 5.2497e-12 0)
(-2.30009e-12 4.3806e-12 0)
(-2.42283e-12 3.54917e-12 0)
(-2.38145e-12 2.83053e-12 0)
(-2.24427e-12 2.24427e-12 0)
(-2.06219e-12 1.7808e-12 0)
(-1.86747e-12 1.41992e-12 0)
(-2.42549e-11 1.14036e-12 0)
(2.55383e-11 1.11044e-12 0)
(2.20898e-12 1.41514e-12 0)
(2.51134e-12 1.82574e-12 0)
(2.83053e-12 2.38145e-12 0)
(3.13064e-12 3.13064e-12 0)
(3.33948e-12 4.1217e-12 0)
(3.33592e-12 5.37404e-12 0)
(2.96159e-12 6.81472e-12 0)
(2.09158e-12 8.19293e-12 0)
(7.61277e-13 9.07499e-12 0)
(-7.61277e-13 9.07499e-12 0)
(-2.09158e-12 8.19293e-12 0)
(-2.96159e-12 6.81472e-12 0)
(-3.33592e-12 5.37404e-12 0)
(-3.33948e-12 4.1217e-12 0)
(-3.13064e-12 3.13064e-12 0)
(-2.83053e-12 2.38145e-12 0)
(-2.51134e-12 1.82574e-12 0)
(-2.20898e-12 1.41514e-12 0)
(-2.55383e-11 1.11044e-12 0)
(2.67805e-11 1.03238e-12 0)
(2.58276e-12 1.34675e-12 0)
(3.0285e-12 1.78941e-12 0)
(3.54917e-12 2.42283e-12 0)
(4.1217e-12 3.33948e-12 0)
(4.66622e-12 4.66622e-12 0)
(4.9931e-12 6.54194e-12 0)
(4.76237e-12 9.00828e-12 0)
(3.5786e-12 1.17289e-11 0)
(1.35103e-12 1.36886e-11 0)
(-1.35103e-12 1.36886e-11 0)
(-3.5786e-12 1.17289e-11 0)
(-4.76237e-12 9.00828e-12 0)
(-4.9931e-12 6.54194e-12 0)
(-4.66622e-12 4.66622e-12 0)
(-4.1217e-12 3.33948e-12 0)
(-3.54917e-12 2.42283e-12 0)
(-3.0285e-12 1.78941e-12 0)
(-2.58276e-12 1.34675e-12 0)
(-2.67805e-11 1.03238e-12 0)
(2.79175e-11 8.96741e-13 0)
(2.96601e-12 1.19594e-12 0)
(3.58741e-12 1.6354e-12 0)
(4.3806e-12 2.30009e-12 0)
(5.37404e-12 3.33592e-12 0)
(6.54194e-12 4.9931e-12 0)
(7.67798e-12 7.67798e-12 0)
(8.14857e-12 1.19151e-11 0)
(6.77193e-12 1.77786e-11 0)
(2.72099e-12 2.30498e-11 0)
(-2.72099e-12 2.30498e-11 0)
(-6.77193e-12 1.77786e-11 0)
(-8.14857e-12 1.19151e-11 0)
(-7.67798e-12 7.67798e-12 0)
(-6.54194e-12 4.9931e-12 0)
(-5.37404e-12 3.33592e-12 0)
(-4.3806e-12 2.30009e-12 0)
(-3.58741e-12 1.6354e-12 0)
(-2.96601e-12 1.19594e-12 0)
(-2.79175e-11 8.96741e-13 0)
(2.88731e-11 6.99702e-13 0)
(3.32141e-12 9.51109e-13 0)
(4.13265e-12 1.33424e-12 0)
(5.2497e-12 1.94348e-12 0)
(6.81472e-12 2.96159e-12 0)
(9.00828e-12 4.76237e-12 0)
(1.19151e-11 8.14857e-12 0)
(1.48629e-11 1.48629e-11 0)
(1.47133e-11 2.80833e-11 0)
(6.62232e-12 4.70243e-11 0)
(-6.62232e-12 4.70243e-11 0)
(-1.47133e-11 2.80833e-11 0)
(-1.48629e-11 1.48629e-11 0)
(-1.19151e-11 8.14857e-12 0)
(-9.00828e-12 4.76237e-12 0)
(-6.81472e-12 2.96159e-12 0)
(-5.2497e-12 1.94348e-12 0)
(-4.13265e-12 1.33424e-12 0)
(-3.32141e-12 9.51109e-13 0)
(-2.88731e-11 6.99702e-13 0)
(2.95683e-11 4.466e-13 0)
(3.60054e-12 6.15694e-13 0)
(4.57979e-12 8.80586e-13 0)
(6.00796e-12 1.31832e-12 0)
(8.19293e-12 2.09158e-12 0)
(1.17289e-11 3.5786e-12 0)
(1.77786e-11 6.77193e-12 0)
(2.80833e-11 1.47133e-11 0)
(3.89333e-11 3.89333e-11 0)
(2.1662e-11 1.37461e-10 0)
(-2.1662e-11 1.37461e-10 0)
(-3.89333e-11 3.89333e-11 0)
(-2.80833e-11 1.47133e-11 0)
(-1.77786e-11 6.77193e-12 0)
(-1.17289e-11 3.5786e-12 0)
(-8.19293e-12 2.09158e-12 0)
(-6.00796e-12 1.31832e-12 0)
(-4.57979e-12 8.80586e-13 0)
(-3.60054e-12 6.15694e-13 0)
(-2.95683e-11 4.466e-13 0)
(2.99354e-11 1.53687e-13 0)
(3.7554e-12 2.13479e-13 0)
(4.83528e-12 3.08543e-13 0)
(6.46069e-12 4.6897e-13 0)
(9.07499e-12 7.61277e-13 0)
(1.36886e-11 1.35103e-12 0)
(2.30498e-11 2.72099e-12 0)
(4.70243e-11 6.62232e-12 0)
(1.37461e-10 2.1662e-11 0)
(1.0515e-10 1.0515e-10 0)
(-1.0515e-10 1.0515e-10 0)
(-1.37461e-10 2.1662e-11 0)
(-4.70243e-11 6.62232e-12 0)
(-2.30498e-11 2.72099e-12 0)
(-1.36886e-11 1.35103e-12 0)
(-9.07499e-12 7.61277e-13 0)
(-6.46069e-12 4.6897e-13 0)
(-4.83528e-12 3.08543e-13 0)
(-3.7554e-12 2.13479e-13 0)
(-2.99354e-11 1.53687e-13 0)
(2.99354e-11 -1.53687e-13 0)
(3.7554e-12 -2.13479e-13 0)
(4.83528e-12 -3.08543e-13 0)
(6.46069e-12 -4.6897e-13 0)
(9.07499e-12 -7.61277e-13 0)
(1.36886e-11 -1.35103e-12 0)
(2.30498e-11 -2.72099e-12 0)
(4.70243e-11 -6.62232e-12 0)
(1.37461e-10 -2.1662e-11 0)
(1.0515e-10 -1.0515e-10 0)
(-1.0515e-10 -1.0515e-10 0)
(-1.37461e-10 -2.1662e-11 0)
(-4.70243e-11 -6.62232e-12 0)
(-2.30498e-11 -2.72099e-12 0)
(-1.36886e-11 -1.35103e-12 0)
(-9.07499e-12 -7.61277e-13 0)
(-6.46069e-12 -4.6897e-13 0)
(-4.83528e-12 -3.08543e-13 0)
(-3.7554e-12 -2.13479e-13 0)
(-2.99354e-11 -1.53687e-13 0)
(2.95683e-11 -4.466e-13 0)
(3.60054e-12 -6.15694e-13 0)
(4.57979e-12 -8.80586e-13 0)
(6.00796e-12 -1.31832e-12 0)
(8.19293e-12 -2.09158e-12 0)
(1.17289e-11 -3.5786e-12 0)
(1.77786e-11 -6.77193e-12 0)
(2.80833e-11 -1.47133e-11 0)
(3.89333e-11 -3.89333e-11 0)
(2.1662e-11 -1.37461e-10 0)
(-2.1662e-11 -1.37461e-10 0)
(-3.89333e-11 -3.89333e-11 0)
(-2.80833e-11 -1.47133e-11 0)
(-1.77786e-11 -6.77193e-12 0)
(-1.17289e-11 -3.5786e-12 0)
(-8.19293e-12 -2.09158e-12 0)
(-6.00796e-12 -1.31832e-12 0)
(-4.57979e-12 -8.80586e-13 0)
(-3.60054e-12 -6.15694e-13 0)
(-2.95683e-11 -4.466e-13 0)
(2.88731e-11 -6.99702e-13 0)
(3.32141e-12 -9.51109e-13 0)
(4.13265e-12 -1.33424e-12 0)
(5.2497e-12 -1.94348e-12 0)
(6.81472e-12 -2.96159e-12 0)
(9.00828e-12 -4.76237e-12 0)
(1.19151e-11 -8.14857e-12 0)
(1.48629e-11 -1.48629e-11 0)
(1.47133e-11 -2.80833e-11 0)
(6.62232e-12 -4.70243e-11 0)
(-6.62232e-12 -4.70243e-11 0)
(-1.47133e-11 -2.80833e-11 0)
(-1.48629e-11 -1.48629e-11 0)
(-1.19151e-11 -8.14857e-12 0)
(-9.00828e-12 -4.76237e-12 0)
(-6.81472e-12 -2.96159e-12 0)
(-5.2497e-12 -1.94348e-12 0)
(-4.13265e-12 -1.33424e-12 0)
(-3.32141e-12 -9.51109e-13 0)
(-2.88731e-11 -6.99702e-13 0)
(2.79175e-11 -8.96741e-13 0)
(2.96601e-12 -1.19594e-12 0)
(3.58741e-12 -1.6354e-12 0)
(4.3806e-12 -2.30009e-12 0)
(5.37404e-12 -3.33592e-12 0)
(6.54194e-12 -4.9931e-12 0)
(7.67798e-12 -7.67798e-12 0)
(8.14857e-12 -1.19151e-11 0)
(6.77193e-12 -1.77786e-11 0)
(2.72099e-12 -2.30498e-11 0)
(-2.72099e-12 -2.30498e-11 0)
(-6.77193e-12 -1.77786e-11 0)
(-8.14857e-12 -1.19151e-11 0)
(-7.67798e-12 -7.67798e-12 0)
(-6.54194e-12 -4.9931e-12 0)
(-5.37404e-12 -3.33592e-12 0)
(-4.3806e-12 -2.30009e-12 0)
(-3.58741e-12 -1.6354e-12 0)
(-2.96601e-12 -1.19594e-12 0)
(-2.79175e-11 -8.96741e-13 0)
(2.67805e-11 -1.03238e-12 0)
(2.58276e-12 -1.34675e-12 0)
(3.0285e-12 -1.78941e-12 0)
(3.54917e-12 -2.42283e-12 0)
(4.1217e-12 -3.33948e-12 0)
(4.66622e-12 -4.66622e-12 0)
(4.9931e-12 -6.54194e-12 0)
(4.76237e-12 -9.00828e-12 0)
(3.5786e-12 -1.17289e-11 0)
(1.35103e-12 -1.36886e-11 0)
(-1.35103e-12 -1.36886e-11 0)
(-3.5786e-12 -1.17289e-11 0)
(-4.76237e-12 -9.00828e-12 0)
(-4.9931e-12 -6.54194e-12 0)
(-4.66622e-12 -4.66622e-12 0)
(-4.1217e-12 -3.33948e-12 0)
(-3.54917e-12 -2.42283e-12 0)
(-3.0285e-12 -1.78941e-12 0)
(-2.58276e-12 -1.34675e-12 0)
(-2.67805e-11 -1.03238e-12 0)
(2.55383e-11 -1.11044e-12 0)
(2.20898e-12 -1.41514e-12 0)
(2.51134e-12 -1.82574e-12 0)
(2.83053e-12 -2.38145e-12 0)
(3.13064e-12 -3.13064e-12 0)
(3.33948e-12 -4.1217e-12 0)
(3.33592e-12 -5.37404e-12 0)
(2.96159e-12 -6.81472e-12 0)
(2.09158e-12 -8.19293e-12 0)
(7.61277e-13 -9.07499e-12 0)
(-7.61277e-13 -9.07499e-12 0)
(-2.09158e-12 -8.19293e-12 0)
(-2.96159e-12 -6.81472e-12 0)
(-3.33592e-12 -5.37404e-12 0)
(-3.33948e-12 -4.1217e-12 0)
(-3.13064e-12 -3.13064e-12 0)
(-2.83053e-12 -2.38145e-12 0)
(-2.51134e-12 -1.82574e-12 0)
(-2.20898e-12 -1.41514e-12 0)
(-2.55383e-11 -1.11044e-12 0)
(2.42549e-11 -1.14036e-12 0)
(1.86747e-12 -1.41992e-12 0)
(2.06219e-12 -1.7808e-12 0)
(2.24427e-12 -2.24427e-12 0)
(2.38145e-12 -2.83053e-12 0)
(2.42283e-12 -3.54917e-12 0)
(2.30009e-12 -4.3806e-12 0)
(1.94348e-12 -5.2497e-12 0)
(1.31832e-12 -6.00796e-12 0)
(4.6897e-13 -6.46069e-12 0)
(-4.6897e-13 -6.46069e-12 0)
(-1.31832e-12 -6.00796e-12 0)
(-1.94348e-12 -5.2497e-12 0)
(-2.30009e-12 -4.3806e-12 0)
(-2.42283e-12 -3.54917e-12 0)
(-2.38145e-12 -2.83053e-12 0)
(-2.24427e-12 -2.24427e-12 0)
(-2.06219e-12 -1.7808e-12 0)
(-1.86747e-12 -1.41992e-12 0)
(-2.42549e-11 -1.14036e-12 0)
(2.2978e-11 -1.1336e-12 0)
(1.56854e-12 -1.38066e-12 0)
(1.68699e-12 -1.68699e-12 0)
(1.7808e-12 -2.06219e-12 0)
(1.82574e-12 -2.51134e-12 0)
(1.78941e-12 -3.0285e-12 0)
(1.6354e-12 -3.58741e-12 0)
(1.33424e-12 -4.13265e-12 0)
(8.80586e-13 -4.57979e-12 0)
(3.08543e-13 -4.83528e-12 0)
(-3.08543e-13 -4.83528e-12 0)
(-8.80586e-13 -4.57979e-12 0)
(-1.33424e-12 -4.13265e-12 0)
(-1.6354e-12 -3.58741e-12 0)
(-1.78941e-12 -3.0285e-12 0)
(-1.82574e-12 -2.51134e-12 0)
(-1.7808e-12 -2.06219e-12 0)
(-1.68699e-12 -1.68699e-12 0)
(-1.56854e-12 -1.38066e-12 0)
(-2.2978e-11 -1.1336e-12 0)
(2.17406e-11 -1.10118e-12 0)
(1.31407e-12 -1.31407e-12 0)
(1.38066e-12 -1.56854e-12 0)
(1.41992e-12 -1.86747e-12 0)
(1.41514e-12 -2.20898e-12 0)
(1.34675e-12 -2.58276e-12 0)
(1.19594e-12 -2.96601e-12 0)
(9.51109e-13 -3.32141e-12 0)
(6.15694e-13 -3.60054e-12 0)
(2.13479e-13 -3.7554e-12 0)
(-2.13479e-13 -3.7554e-12 0)
(-6.15694e-13 -3.60054e-12 0)
(-9.51109e-13 -3.32141e-12 0)
(-1.19594e-12 -2.96601e-12 0)
(-1.34675e-12 -2.58276e-12 0)
(-1.41514e-12 -2.20898e-12 0)
(-1.41992e-12 -1.86747e-12 0)
(-1.38066e-12 -1.56854e-12 0)
(-1.31407e-12 -1.31407e-12 0)
(-2.17406e-11 -1.10118e-12 0)
(2.05628e-11 -2.05628e-11 0)
(1.10118e-12 -2.17406e-11 0)
(1.1336e-12 -2.2978e-11 0)
(1.14036e-12 -2.42549e-11 0)
(1.11044e-12 -2.55383e-11 0)
(1.03238e-12 -2.67805e-11 0)
(8.96741e-13 -2.79175e-11 0)
(6.99702e-13 -2.88731e-11 0)
(4.466e-13 -2.95683e-11 0)
(1.53687e-13 -2.99354e-11 0)
(-1.53687e-13 -2.99354e-11 0)
(-4.466e-13 -2.95683e-11 0)
(-6.99702e-13 -2.88731e-11 0)
(-8.96741e-13 -2.79175e-11 0)
(-1.03238e-12 -2.67805e-11 0)
(-1.11044e-12 -2.55383e-11 0)
(-1.14036e-12 -2.42549e-11 0)
(-1.1336e-12 -2.2978e-11 0)
(-1.10118e-12 -2.17406e-11 0)
(-2.05628e-11 -2.05628e-11 0)
)
;

boundaryField
{
    movingWall
    {
        type            fixedValue;
        value           uniform (1 0 0);
    }
    fixedWalls
    {
        type            fixedValue;
        value           uniform (0 0 0);
    }
    frontAndBack
    {
        type            empty;
    }
}


// ************************************************************************* //
