/*--------------------------------*- C++ -*----------------------------------*\
| =========                 |                                                 |
| \\      /  F ield         | OpenFOAM: The Open Source CFD Toolbox           |
|  \\    /   O peration     | Version:  v2012                                 |
|   \\  /    A nd           | Website:  www.openfoam.com                      |
|    \\/     M anipulation  |                                                 |
\*---------------------------------------------------------------------------*/
FoamFile
{
    version     2.0;
    format      ascii;
    class       volVectorField;
    location    "10";
    object      U;
}
// * * * * * * * * * * * * * * * * * * * * * * * * * * * * * * * * * * * * * //

dimensions      [0 1 -1 0 0 0 0];


internalField   nonuniform List<vector> 
400
(
(8.47334e-12 8.47334e-12 0)
(4.53763e-13 8.95869e-12 0)
(4.67124e-13 9.4686e-12 0)
(4.6991e-13 9.99474e-12 0)
(4.57583e-13 1.05236e-11 0)
(4.25414e-13 1.10355e-11 0)
(3.69521e-13 1.1504e-11 0)
(2.88327e-13 1.18978e-11 0)
(1.84031e-13 1.21842e-11 0)
(6.33298e-14 1.23355e-11 0)
(-6.33298e-14 1.23355e-11 0)
(-1.84031e-13 1.21842e-11 0)
(-2.88327e-13 1.18978e-11 0)
(-3.69521e-13 1.1504e-11 0)
(-4.25414e-13 1.10355e-11 0)
(-4.57583e-13 1.05236e-11 0)
(-4.6991e-13 9.99474e-12 0)
(-4.67124e-13 9.4686e-12 0)
(-4.53763e-13 8.95869e-12 0)
(-8.47334e-12 8.47334e-12 0)
(8.95869e-12 4.53763e-13 0)
(5.41492e-13 5.41492e-13 0)
(5.68931e-13 6.46351e-13 0)
(5.8511e-13 7.69529e-13 0)
(5.83139e-13 9.10258e-13 0)
(5.54956e-13 1.06428e-12 0)
(4.92812e-13 1.22221e-12 0)
(3.91925e-13 1.36866e-12 0)
(2.5371e-13 1.48368e-12 0)
(8.79684e-14 1.54749e-12 0)
(-8.79684e-14 1.54749e-12 0)
(-2.5371e-13 1.48368e-12 0)
(-3.91925e-13 1.36866e-12 0)
(-4.92812e-13 1.22221e-12 0)
(-5.54956e-13 1.06428e-12 0)
(-5.83139e-13 9.10258e-13 0)
(-5.8511e-13 7.69529e-13 0)
(-5.68931e-13 6.46351e-13 0)
(-5.41492e-13 5.41492e-13 0)
(-8.95869e-12 4.53763e-13 0)
(9.4686e-12 4.67124e-13 0)
(6.46351e-13 5.68931e-13 0)
(6.95161e-13 6.95161e-13 0)
(7.33817e-13 8.49769e-13 0)
(7.52334e-13 1.03485e-12 0)
(7.37364e-13 1.24796e-12 0)
(6.739e-13 1.47827e-12 0)
(5.498e-13 1.70295e-12 0)
(3.62864e-13 1.8872e-12 0)
(1.27142e-13 1.99248e-12 0)
(-1.27142e-13 1.99248e-12 0)
(-3.62864e-13 1.8872e-12 0)
(-5.498e-13 1.70295e-12 0)
(-6.739e-13 1.47827e-12 0)
(-7.37364e-13 1.24796e-12 0)
(-7.52334e-13 1.03485e-12 0)
(-7.33817e-13 8.49769e-13 0)
(-6.95161e-13 6.95161e-13 0)
(-6.46351e-13 5.68931e-13 0)
(-9.4686e-12 4.67124e-13 0)
(9.99474e-12 4.6991e-13 0)
(7.69529e-13 5.8511e-13 0)
(8.49769e-13 7.33817e-13 0)
(9.24798e-13 9.24798e-13 0)
(9.81329e-13 1.16638e-12 0)
(9.98378e-13 1.46251e-12 0)
(9.47801e-13 1.80512e-12 0)
(8.00853e-13 2.16325e-12 0)
(5.43243e-13 2.47571e-12 0)
(1.93249e-13 2.66227e-12 0)
(-1.93249e-13 2.66227e-12 0)
(-5.43243e-13 2.47571e-12 0)
(-8.00853e-13 2.16325e-12 0)
(-9.47801e-13 1.80512e-12 0)
(-9.98378e-13 1.46251e-12 0)
(-9.81329e-13 1.16638e-12 0)
(-9.24798e-13 9.24798e-13 0)
(-8.49769e-13 7.33817e-13 0)
(-7.69529e-13 5.8511e-13 0)
(-9.99474e-12 4.6991e-13 0)
(1.05236e-11 4.57583e-13 0)
(9.10258e-13 5.83139e-13 0)
(1.03485e-12 7.52334e-13 0)
(1.16638e-12 9.81329e-13 0)
(1.29005e-12 1.29005e-12 0)
(1.37611e-12 1.69844e-12 0)
(1.37464e-12 2.21449e-12 0)
(1.22039e-12 2.80815e-12 0)
(8.6188e-13 3.37607e-12 0)
(3.13701e-13 3.73954e-12 0)
(-3.13701e-13 3.73954e-12 0)
(-8.6188e-13 3.37607e-12 0)
(-1.22039e-12 2.80815e-12 0)
(-1.37464e-12 2.21449e-12 0)
(-1.37611e-12 1.69844e-12 0)
(-1.29005e-12 1.29005e-12 0)
(-1.16638e-12 9.81329e-13 0)
(-1.03485e-12 7.52334e-13 0)
(-9.10258e-13 5.83139e-13 0)
(-1.05236e-11 4.57583e-13 0)
(1.10355e-11 4.25414e-13 0)
(1.06428e-12 5.54956e-13 0)
(1.24796e-12 7.37364e-13 0)
(1.46251e-12 9.98378e-13 0)
(1.69844e-12 1.37611e-12 0)
(1.92282e-12 1.92282e-12 0)
(2.05751e-12 2.69575e-12 0)
(1.96244e-12 3.71206e-12 0)
(1.47464e-12 4.83315e-12 0)
(5.56721e-13 5.64069e-12 0)
(-5.56721e-13 5.64069e-12 0)
(-1.47464e-12 4.83315e-12 0)
(-1.96244e-12 3.71206e-12 0)
(-2.05751e-12 2.69575e-12 0)
(-1.92282e-12 1.92282e-12 0)
(-1.69844e-12 1.37611e-12 0)
(-1.46251e-12 9.98378e-13 0)
(-1.24796e-12 7.37364e-13 0)
(-1.06428e-12 5.54956e-13 0)
(-1.10355e-11 4.25414e-13 0)
(1.1504e-11 3.69521e-13 0)
(1.22221e-12 4.92812e-13 0)
(1.47827e-12 6.739e-13 0)
(1.80512e-12 9.47801e-13 0)
(2.21449e-12 1.37464e-12 0)
(2.69575e-12 2.05751e-12 0)
(3.16388e-12 3.16388e-12 0)
(3.35779e-12 4.90988e-12 0)
(2.79052e-12 7.32603e-12 0)
(1.12124e-12 9.49818e-12 0)
(-1.12124e-12 9.49818e-12 0)
(-2.79052e-12 7.32603e-12 0)
(-3.35779e-12 4.90988e-12 0)
(-3.16388e-12 3.16388e-12 0)
(-2.69575e-12 2.05751e-12 0)
(-2.21449e-12 1.37464e-12 0)
(-1.80512e-12 9.47801e-13 0)
(-1.47827e-12 6.739e-13 0)
(-1.22221e-12 4.92812e-13 0)
(-1.1504e-11 3.69521e-13 0)
(1.18978e-11 2.88327e-13 0)
(1.36866e-12 3.91925e-13 0)
(1.70295e-12 5.498e-13 0)
(2.16325e-12 8.00853e-13 0)
(2.80815e-12 1.22039e-12 0)
(3.71206e-12 1.96244e-12 0)
(4.90988e-12 3.35779e-12 0)
(6.12459e-12 6.12459e-12 0)
(6.06294e-12 1.15723e-11 0)
(2.72887e-12 1.93774e-11 0)
(-2.72887e-12 1.93774e-11 0)
(-6.06294e-12 1.15723e-11 0)
(-6.12459e-12 6.12459e-12 0)
(-4.90988e-12 3.35779e-12 0)
(-3.71206e-12 1.96244e-12 0)
(-2.80815e-12 1.22039e-12 0)
(-2.16325e-12 8.00853e-13 0)
(-1.70295e-12 5.498e-13 0)
(-1.36866e-12 3.91925e-13 0)
(-1.18978e-11 2.88327e-13 0)
(1.21842e-11 1.84031e-13 0)
(1.48368e-12 2.5371e-13 0)
(1.8872e-12 3.62864e-13 0)
(2.47571e-12 5.43243e-13 0)
(3.37607e-12 8.6188e-13 0)
(4.83315e-12 1.47464e-12 0)
(7.32603e-12 2.79052e-12 0)
(1.15723e-11 6.06294e-12 0)
(1.60433e-11 1.60433e-11 0)
(8.92629e-12 5.66436e-11 0)
(-8.92629e-12 5.66436e-11 0)
(-1.60433e-11 1.60433e-11 0)
(-1.15723e-11 6.06294e-12 0)
(-7.32603e-12 2.79052e-12 0)
(-4.83315e-12 1.47464e-12 0)
(-3.37607e-12 8.6188e-13 0)
(-2.47571e-12 5.43243e-13 0)
(-1.8872e-12 3.62864e-13 0)
(-1.48368e-12 2.5371e-13 0)
(-1.21842e-11 1.84031e-13 0)
(1.23355e-11 6.33298e-14 0)
(1.54749e-12 8.79684e-14 0)
(1.99248e-12 1.27142e-13 0)
(2.66227e-12 1.93249e-13 0)
(3.73954e-12 3.13701e-13 0)
(5.64069e-12 5.56721e-13 0)
(9.49818e-12 1.12124e-12 0)
(1.93774e-11 2.72887e-12 0)
(5.66436e-11 8.92629e-12 0)
(4.33291e-11 4.33291e-11 0)
(-4.33291e-11 4.33291e-11 0)
(-5.66436e-11 8.92629e-12 0)
(-1.93774e-11 2.72887e-12 0)
(-9.49818e-12 1.12124e-12 0)
(-5.64069e-12 5.56721e-13 0)
(-3.73954e-12 3.13701e-13 0)
(-2.66227e-12 1.93249e-13 0)
(-1.99248e-12 1.27142e-13 0)
(-1.54749e-12 8.79684e-14 0)
(-1.23355e-11 6.33298e-14 0)
(1.23355e-11 -6.33298e-14 0)
(1.54749e-12 -8.79684e-14 0)
(1.99248e-12 -1.27142e-13 0)
(2.66227e-12 -1.93249e-13 0)
(3.73954e-12 -3.13701e-13 0)
(5.64069e-12 -5.56721e-13 0)
(9.49818e-12 -1.12124e-12 0)
(1.93774e-11 -2.72887e-12 0)
(5.66436e-11 -8.92629e-12 0)
(4.33291e-11 -4.33291e-11 0)
(-4.33291e-11 -4.33291e-11 0)
(-5.66436e-11 -8.92629e-12 0)
(-1.93774e-11 -2.72887e-12 0)
(-9.49818e-12 -1.12124e-12 0)
(-5.64069e-12 -5.56721e-13 0)
(-3.73954e-12 -3.13701e-13 0)
(-2.66227e-12 -1.93249e-13 0)
(-1.99248e-12 -1.27142e-13 0)
(-1.54749e-12 -8.79684e-14 0)
(-1.23355e-11 -6.33298e-14 0)
(1.21842e-11 -1.84031e-13 0)
(1.48368e-12 -2.5371e-13 0)
(1.8872e-12 -3.62864e-13 0)
(2.47571e-12 -5.43243e-13 0)
(3.37607e-12 -8.6188e-13 0)
(4.83315e-12 -1.47464e-12 0)
(7.32603e-12 -2.79052e-12 0)
(1.15723e-11 -6.06294e-12 0)
(1.60433e-11 -1.60433e-11 0)
(8.92629e-12 -5.66436e-11 0)
(-8.92629e-12 -5.66436e-11 0)
(-1.60433e-11 -1.60433e-11 0)
(-1.15723e-11 -6.06294e-12 0)
(-7.32603e-12 -2.79052e-12 0)
(-4.83315e-12 -1.47464e-12 0)
(-3.37607e-12 -8.6188e-13 0)
(-2.47571e-12 -5.43243e-13 0)
(-1.8872e-12 -3.62864e-13 0)
(-1.48368e-12 -2.5371e-13 0)
(-1.21842e-11 -1.84031e-13 0)
(1.18978e-11 -2.88327e-13 0)
(1.36866e-12 -3.91925e-13 0)
(1.70295e-12 -5.498e-13 0)
(2.16325e-12 -8.00853e-13 0)
(2.80815e-12 -1.22039e-12 0)
(3.71206e-12 -1.96244e-12 0)
(4.90988e-12 -3.35779e-12 0)
(6.12459e-12 -6.12459e-12 0)
(6.06294e-12 -1.15723e-11 0)
(2.72887e-12 -1.93774e-11 0)
(-2.72887e-12 -1.93774e-11 0)
(-6.06294e-12 -1.15723e-11 0)
(-6.12459e-12 -6.12459e-12 0)
(-4.90988e-12 -3.35779e-12 0)
(-3.71206e-12 -1.96244e-12 0)
(-2.80815e-12 -1.22039e-12 0)
(-2.16325e-12 -8.00853e-13 0)
(-1.70295e-12 -5.498e-13 0)
(-1.36866e-12 -3.91925e-13 0)
(-1.18978e-11 -2.88327e-13 0)
(1.1504e-11 -3.69521e-13 0)
(1.22221e-12 -4.92812e-13 0)
(1.47827e-12 -6.739e-13 0)
(1.80512e-12 -9.47801e-13 0)
(2.21449e-12 -1.37464e-12 0)
(2.69575e-12 -2.05751e-12 0)
(3.16388e-12 -3.16388e-12 0)
(3.35779e-12 -4.90988e-12 0)
(2.79052e-12 -7.32603e-12 0)
(1.12124e-12 -9.49818e-12 0)
(-1.12124e-12 -9.49818e-12 0)
(-2.79052e-12 -7.32603e-12 0)
(-3.35779e-12 -4.90988e-12 0)
(-3.16388e-12 -3.16388e-12 0)
(-2.69575e-12 -2.05751e-12 0)
(-2.21449e-12 -1.37464e-12 0)
(-1.80512e-12 -9.47801e-13 0)
(-1.47827e-12 -6.739e-13 0)
(-1.22221e-12 -4.92812e-13 0)
(-1.1504e-11 -3.69521e-13 0)
(1.10355e-11 -4.25414e-13 0)
(1.06428e-12 -5.54956e-13 0)
(1.24796e-12 -7.37364e-13 0)
(1.46251e-12 -9.98378e-13 0)
(1.69844e-12 -1.37611e-12 0)
(1.92282e-12 -1.92282e-12 0)
(2.05751e-12 -2.69575e-12 0)
(1.96244e-12 -3.71206e-12 0)
(1.47464e-12 -4.83315e-12 0)
(5.56721e-13 -5.64069e-12 0)
(-5.56721e-13 -5.64069e-12 0)
(-1.47464e-12 -4.83315e-12 0)
(-1.96244e-12 -3.71206e-12 0)
(-2.05751e-12 -2.69575e-12 0)
(-1.92282e-12 -1.92282e-12 0)
(-1.69844e-12 -1.37611e-12 0)
(-1.46251e-12 -9.98378e-13 0)
(-1.24796e-12 -7.37364e-13 0)
(-1.06428e-12 -5.54956e-13 0)
(-1.10355e-11 -4.25414e-13 0)
(1.05236e-11 -4.57583e-13 0)
(9.10258e-13 -5.83139e-13 0)
(1.03485e-12 -7.52334e-13 0)
(1.16638e-12 -9.81329e-13 0)
(1.29005e-12 -1.29005e-12 0)
(1.37611e-12 -1.69844e-12 0)
(1.37464e-12 -2.21449e-12 0)
(1.22039e-12 -2.80815e-12 0)
(8.6188e-13 -3.37607e-12 0)
(3.13701e-13 -3.73954e-12 0)
(-3.13701e-13 -3.73954e-12 0)
(-8.6188e-13 -3.37607e-12 0)
(-1.22039e-12 -2.80815e-12 0)
(-1.37464e-12 -2.21449e-12 0)
(-1.37611e-12 -1.69844e-12 0)
(-1.29005e-12 -1.29005e-12 0)
(-1.16638e-12 -9.81329e-13 0)
(-1.03485e-12 -7.52334e-13 0)
(-9.10258e-13 -5.83139e-13 0)
(-1.05236e-11 -4.57583e-13 0)
(9.99474e-12 -4.6991e-13 0)
(7.69529e-13 -5.8511e-13 0)
(8.49769e-13 -7.33817e-13 0)
(9.24798e-13 -9.24798e-13 0)
(9.81329e-13 -1.16638e-12 0)
(9.98378e-13 -1.46251e-12 0)
(9.47801e-13 -1.80512e-12 0)
(8.00853e-13 -2.16325e-12 0)
(5.43243e-13 -2.47571e-12 0)
(1.93249e-13 -2.66227e-12 0)
(-1.93249e-13 -2.66227e-12 0)
(-5.43243e-13 -2.47571e-12 0)
(-8.00853e-13 -2.16325e-12 0)
(-9.47801e-13 -1.80512e-12 0)
(-9.98378e-13 -1.46251e-12 0)
(-9.81329e-13 -1.16638e-12 0)
(-9.24798e-13 -9.24798e-13 0)
(-8.49769e-13 -7.33817e-13 0)
(-7.69529e-13 -5.8511e-13 0)
(-9.99474e-12 -4.6991e-13 0)
(9.4686e-12 -4.67124e-13 0)
(6.46351e-13 -5.68931e-13 0)
(6.95161e-13 -6.95161e-13 0)
(7.33817e-13 -8.49769e-13 0)
(7.52334e-13 -1.03485e-12 0)
(7.37364e-13 -1.24796e-12 0)
(6.739e-13 -1.47827e-12 0)
(5.498e-13 -1.70295e-12 0)
(3.62864e-13 -1.8872e-12 0)
(1.27142e-13 -1.99248e-12 0)
(-1.27142e-13 -1.99248e-12 0)
(-3.62864e-13 -1.8872e-12 0)
(-5.498e-13 -1.70295e-12 0)
(-6.739e-13 -1.47827e-12 0)
(-7.37364e-13 -1.24796e-12 0)
(-7.52334e-13 -1.03485e-12 0)
(-7.33817e-13 -8.49769e-13 0)
(-6.95161e-13 -6.95161e-13 0)
(-6.46351e-13 -5.68931e-13 0)
(-9.4686e-12 -4.67124e-13 0)
(8.95869e-12 -4.53763e-13 0)
(5.41492e-13 -5.41492e-13 0)
(5.68931e-13 -6.46351e-13 0)
(5.8511e-13 -7.69529e-13 0)
(5.83139e-13 -9.10258e-13 0)
(5.54956e-13 -1.06428e-12 0)
(4.92812e-13 -1.22221e-12 0)
(3.91925e-13 -1.36866e-12 0)
(2.5371e-13 -1.48368e-12 0)
(8.79684e-14 -1.54749e-12 0)
(-8.79684e-14 -1.54749e-12 0)
(-2.5371e-13 -1.48368e-12 0)
(-3.91925e-13 -1.36866e-12 0)
(-4.92812e-13 -1.22221e-12 0)
(-5.54956e-13 -1.06428e-12 0)
(-5.83139e-13 -9.10258e-13 0)
(-5.8511e-13 -7.69529e-13 0)
(-5.68931e-13 -6.46351e-13 0)
(-5.41492e-13 -5.41492e-13 0)
(-8.95869e-12 -4.53763e-13 0)
(8.47334e-12 -8.47334e-12 0)
(4.53763e-13 -8.95869e-12 0)
(4.67124e-13 -9.4686e-12 0)
(4.6991e-13 -9.99474e-12 0)
(4.57583e-13 -1.05236e-11 0)
(4.25414e-13 -1.10355e-11 0)
(3.69521e-13 -1.1504e-11 0)
(2.88327e-13 -1.18978e-11 0)
(1.84031e-13 -1.21842e-11 0)
(6.33298e-14 -1.23355e-11 0)
(-6.33298e-14 -1.23355e-11 0)
(-1.84031e-13 -1.21842e-11 0)
(-2.88327e-13 -1.18978e-11 0)
(-3.69521e-13 -1.1504e-11 0)
(-4.25414e-13 -1.10355e-11 0)
(-4.57583e-13 -1.05236e-11 0)
(-4.6991e-13 -9.99474e-12 0)
(-4.67124e-13 -9.4686e-12 0)
(-4.53763e-13 -8.95869e-12 0)
(-8.47334e-12 -8.47334e-12 0)
)
;

boundaryField
{
    movingWall
    {
        type            fixedValue;
        value           uniform (1 0 0);
    }
    fixedWalls
    {
        type            fixedValue;
        value           uniform (0 0 0);
    }
    frontAndBack
    {
        type            empty;
    }
}


// ************************************************************************* //
