/*--------------------------------*- C++ -*----------------------------------*\
| =========                 |                                                 |
| \\      /  F ield         | OpenFOAM: The Open Source CFD Toolbox           |
|  \\    /   O peration     | Version:  v2012                                 |
|   \\  /    A nd           | Website:  www.openfoam.com                      |
|    \\/     M anipulation  |                                                 |
\*---------------------------------------------------------------------------*/
FoamFile
{
    version     2.0;
    format      ascii;
    class       volVectorField;
    location    "3";
    object      U;
}
// * * * * * * * * * * * * * * * * * * * * * * * * * * * * * * * * * * * * * //

dimensions      [0 1 -1 0 0 0 0];


internalField   nonuniform List<vector> 
400
(
(-1.54943e-13 -1.54943e-13 0)
(-8.29748e-15 -1.63818e-13 0)
(-8.54179e-15 -1.73142e-13 0)
(-8.59274e-15 -1.82763e-13 0)
(-8.36732e-15 -1.92434e-13 0)
(-7.77909e-15 -2.01794e-13 0)
(-6.75704e-15 -2.10361e-13 0)
(-5.27233e-15 -2.17562e-13 0)
(-3.36518e-15 -2.228e-13 0)
(-1.15804e-15 -2.25567e-13 0)
(1.15804e-15 -2.25567e-13 0)
(3.36518e-15 -2.228e-13 0)
(5.27233e-15 -2.17562e-13 0)
(6.75704e-15 -2.10361e-13 0)
(7.77909e-15 -2.01794e-13 0)
(8.36732e-15 -1.92434e-13 0)
(8.59274e-15 -1.82763e-13 0)
(8.54179e-15 -1.73142e-13 0)
(8.29748e-15 -1.63818e-13 0)
(1.54943e-13 -1.54943e-13 0)
(-1.63818e-13 -8.29748e-15 0)
(-9.90167e-15 -9.90167e-15 0)
(-1.04034e-14 -1.18191e-14 0)
(-1.06993e-14 -1.40716e-14 0)
(-1.06632e-14 -1.66449e-14 0)
(-1.01479e-14 -1.94614e-14 0)
(-9.01153e-15 -2.23492e-14 0)
(-7.1667e-15 -2.50272e-14 0)
(-4.63932e-15 -2.71305e-14 0)
(-1.60858e-15 -2.82973e-14 0)
(1.60858e-15 -2.82973e-14 0)
(4.63932e-15 -2.71305e-14 0)
(7.1667e-15 -2.50272e-14 0)
(9.01153e-15 -2.23492e-14 0)
(1.01479e-14 -1.94614e-14 0)
(1.06632e-14 -1.66449e-14 0)
(1.06993e-14 -1.40716e-14 0)
(1.04034e-14 -1.18191e-14 0)
(9.90167e-15 -9.90167e-15 0)
(1.63818e-13 -8.29748e-15 0)
(-1.73142e-13 -8.54179e-15 0)
(-1.18191e-14 -1.04034e-14 0)
(-1.27117e-14 -1.27117e-14 0)
(-1.34185e-14 -1.55388e-14 0)
(-1.37571e-14 -1.89232e-14 0)
(-1.34834e-14 -2.28201e-14 0)
(-1.23229e-14 -2.70315e-14 0)
(-1.00536e-14 -3.11399e-14 0)
(-6.63531e-15 -3.45092e-14 0)
(-2.3249e-15 -3.64343e-14 0)
(2.3249e-15 -3.64343e-14 0)
(6.63531e-15 -3.45092e-14 0)
(1.00536e-14 -3.11399e-14 0)
(1.23229e-14 -2.70315e-14 0)
(1.34834e-14 -2.28201e-14 0)
(1.37571e-14 -1.89232e-14 0)
(1.34185e-14 -1.55388e-14 0)
(1.27117e-14 -1.27117e-14 0)
(1.18191e-14 -1.04034e-14 0)
(1.73142e-13 -8.54179e-15 0)
(-1.82763e-13 -8.59274e-15 0)
(-1.40716e-14 -1.06993e-14 0)
(-1.55388e-14 -1.34185e-14 0)
(-1.69108e-14 -1.69108e-14 0)
(-1.79445e-14 -2.13283e-14 0)
(-1.82563e-14 -2.67434e-14 0)
(-1.73314e-14 -3.30083e-14 0)
(-1.46443e-14 -3.9557e-14 0)
(-9.9337e-15 -4.52706e-14 0)
(-3.53374e-15 -4.8682e-14 0)
(3.53374e-15 -4.8682e-14 0)
(9.9337e-15 -4.52706e-14 0)
(1.46443e-14 -3.9557e-14 0)
(1.73314e-14 -3.30083e-14 0)
(1.82563e-14 -2.67434e-14 0)
(1.79445e-14 -2.13283e-14 0)
(1.69108e-14 -1.69108e-14 0)
(1.55388e-14 -1.34185e-14 0)
(1.40716e-14 -1.06993e-14 0)
(1.82763e-13 -8.59274e-15 0)
(-1.92434e-13 -8.36732e-15 0)
(-1.66449e-14 -1.06632e-14 0)
(-1.89232e-14 -1.37571e-14 0)
(-2.13283e-14 -1.79445e-14 0)
(-2.35897e-14 -2.35897e-14 0)
(-2.51633e-14 -3.10575e-14 0)
(-2.51365e-14 -4.0494e-14 0)
(-2.23159e-14 -5.13496e-14 0)
(-1.57603e-14 -6.17346e-14 0)
(-5.73631e-15 -6.8381e-14 0)
(5.73631e-15 -6.8381e-14 0)
(1.57603e-14 -6.17346e-14 0)
(2.23159e-14 -5.13496e-14 0)
(2.51365e-14 -4.0494e-14 0)
(2.51633e-14 -3.10575e-14 0)
(2.35897e-14 -2.35897e-14 0)
(2.13283e-14 -1.79445e-14 0)
(1.89232e-14 -1.37571e-14 0)
(1.66449e-14 -1.06632e-14 0)
(1.92434e-13 -8.36732e-15 0)
(-2.01794e-13 -7.77909e-15 0)
(-1.94614e-14 -1.01479e-14 0)
(-2.28201e-14 -1.34834e-14 0)
(-2.67434e-14 -1.82563e-14 0)
(-3.10575e-14 -2.51633e-14 0)
(-3.51605e-14 -3.51605e-14 0)
(-3.76235e-14 -4.92942e-14 0)
(-3.5885e-14 -6.78784e-14 0)
(-2.69651e-14 -8.83786e-14 0)
(-1.01802e-14 -1.03145e-13 0)
(1.01802e-14 -1.03145e-13 0)
(2.69651e-14 -8.83786e-14 0)
(3.5885e-14 -6.78784e-14 0)
(3.76235e-14 -4.92942e-14 0)
(3.51605e-14 -3.51605e-14 0)
(3.10575e-14 -2.51633e-14 0)
(2.67434e-14 -1.82563e-14 0)
(2.28201e-14 -1.34834e-14 0)
(1.94614e-14 -1.01479e-14 0)
(2.01794e-13 -7.77909e-15 0)
(-2.10361e-13 -6.75704e-15 0)
(-2.23492e-14 -9.01153e-15 0)
(-2.70315e-14 -1.23229e-14 0)
(-3.30083e-14 -1.73314e-14 0)
(-4.0494e-14 -2.51365e-14 0)
(-4.92942e-14 -3.76235e-14 0)
(-5.78544e-14 -5.78544e-14 0)
(-6.14003e-14 -8.97816e-14 0)
(-5.10272e-14 -1.33963e-13 0)
(-2.0503e-14 -1.73683e-13 0)
(2.0503e-14 -1.73683e-13 0)
(5.10272e-14 -1.33963e-13 0)
(6.14003e-14 -8.97816e-14 0)
(5.78544e-14 -5.78544e-14 0)
(4.92942e-14 -3.76235e-14 0)
(4.0494e-14 -2.51365e-14 0)
(3.30083e-14 -1.73314e-14 0)
(2.70315e-14 -1.23229e-14 0)
(2.23492e-14 -9.01153e-15 0)
(2.10361e-13 -6.75704e-15 0)
(-2.17562e-13 -5.27233e-15 0)
(-2.50272e-14 -7.1667e-15 0)
(-3.11399e-14 -1.00536e-14 0)
(-3.9557e-14 -1.46443e-14 0)
(-5.13496e-14 -2.23159e-14 0)
(-6.78784e-14 -3.5885e-14 0)
(-8.97816e-14 -6.14003e-14 0)
(-1.11994e-13 -1.11994e-13 0)
(-1.10866e-13 -2.11611e-13 0)
(-4.98999e-14 -3.54333e-13 0)
(4.98999e-14 -3.54333e-13 0)
(1.10866e-13 -2.11611e-13 0)
(1.11994e-13 -1.11994e-13 0)
(8.97816e-14 -6.14003e-14 0)
(6.78784e-14 -3.5885e-14 0)
(5.13496e-14 -2.23159e-14 0)
(3.9557e-14 -1.46443e-14 0)
(3.11399e-14 -1.00536e-14 0)
(2.50272e-14 -7.1667e-15 0)
(2.17562e-13 -5.27233e-15 0)
(-2.228e-13 -3.36518e-15 0)
(-2.71305e-14 -4.63932e-15 0)
(-3.45092e-14 -6.63531e-15 0)
(-4.52706e-14 -9.9337e-15 0)
(-6.17346e-14 -1.57603e-14 0)
(-8.83786e-14 -2.69651e-14 0)
(-1.33963e-13 -5.10272e-14 0)
(-2.11611e-13 -1.10866e-13 0)
(-2.93367e-13 -2.93367e-13 0)
(-1.63225e-13 -1.03578e-12 0)
(1.63225e-13 -1.03578e-12 0)
(2.93367e-13 -2.93367e-13 0)
(2.11611e-13 -1.10866e-13 0)
(1.33963e-13 -5.10272e-14 0)
(8.83786e-14 -2.69651e-14 0)
(6.17346e-14 -1.57603e-14 0)
(4.52706e-14 -9.9337e-15 0)
(3.45092e-14 -6.63531e-15 0)
(2.71305e-14 -4.63932e-15 0)
(2.228e-13 -3.36518e-15 0)
(-2.25567e-13 -1.15804e-15 0)
(-2.82973e-14 -1.60858e-15 0)
(-3.64343e-14 -2.3249e-15 0)
(-4.8682e-14 -3.53374e-15 0)
(-6.8381e-14 -5.73631e-15 0)
(-1.03145e-13 -1.01802e-14 0)
(-1.73683e-13 -2.0503e-14 0)
(-3.54333e-13 -4.98999e-14 0)
(-1.03578e-12 -1.63225e-13 0)
(-7.92313e-13 -7.92313e-13 0)
(7.92313e-13 -7.92313e-13 0)
(1.03578e-12 -1.63225e-13 0)
(3.54333e-13 -4.98999e-14 0)
(1.73683e-13 -2.0503e-14 0)
(1.03145e-13 -1.01802e-14 0)
(6.8381e-14 -5.73631e-15 0)
(4.8682e-14 -3.53374e-15 0)
(3.64343e-14 -2.3249e-15 0)
(2.82973e-14 -1.60858e-15 0)
(2.25567e-13 -1.15804e-15 0)
(-2.25567e-13 1.15804e-15 0)
(-2.82973e-14 1.60858e-15 0)
(-3.64343e-14 2.3249e-15 0)
(-4.8682e-14 3.53374e-15 0)
(-6.8381e-14 5.73631e-15 0)
(-1.03145e-13 1.01802e-14 0)
(-1.73683e-13 2.0503e-14 0)
(-3.54333e-13 4.98999e-14 0)
(-1.03578e-12 1.63225e-13 0)
(-7.92313e-13 7.92313e-13 0)
(7.92313e-13 7.92313e-13 0)
(1.03578e-12 1.63225e-13 0)
(3.54333e-13 4.98999e-14 0)
(1.73683e-13 2.0503e-14 0)
(1.03145e-13 1.01802e-14 0)
(6.8381e-14 5.73631e-15 0)
(4.8682e-14 3.53374e-15 0)
(3.64343e-14 2.3249e-15 0)
(2.82973e-14 1.60858e-15 0)
(2.25567e-13 1.15804e-15 0)
(-2.228e-13 3.36518e-15 0)
(-2.71305e-14 4.63932e-15 0)
(-3.45092e-14 6.63531e-15 0)
(-4.52706e-14 9.9337e-15 0)
(-6.17346e-14 1.57603e-14 0)
(-8.83786e-14 2.69651e-14 0)
(-1.33963e-13 5.10272e-14 0)
(-2.11611e-13 1.10866e-13 0)
(-2.93367e-13 2.93367e-13 0)
(-1.63225e-13 1.03578e-12 0)
(1.63225e-13 1.03578e-12 0)
(2.93367e-13 2.93367e-13 0)
(2.11611e-13 1.10866e-13 0)
(1.33963e-13 5.10272e-14 0)
(8.83786e-14 2.69651e-14 0)
(6.17346e-14 1.57603e-14 0)
(4.52706e-14 9.9337e-15 0)
(3.45092e-14 6.63531e-15 0)
(2.71305e-14 4.63932e-15 0)
(2.228e-13 3.36518e-15 0)
(-2.17562e-13 5.27233e-15 0)
(-2.50272e-14 7.1667e-15 0)
(-3.11399e-14 1.00536e-14 0)
(-3.9557e-14 1.46443e-14 0)
(-5.13496e-14 2.23159e-14 0)
(-6.78784e-14 3.5885e-14 0)
(-8.97816e-14 6.14003e-14 0)
(-1.11994e-13 1.11994e-13 0)
(-1.10866e-13 2.11611e-13 0)
(-4.98999e-14 3.54333e-13 0)
(4.98999e-14 3.54333e-13 0)
(1.10866e-13 2.11611e-13 0)
(1.11994e-13 1.11994e-13 0)
(8.97816e-14 6.14003e-14 0)
(6.78784e-14 3.5885e-14 0)
(5.13496e-14 2.23159e-14 0)
(3.9557e-14 1.46443e-14 0)
(3.11399e-14 1.00536e-14 0)
(2.50272e-14 7.1667e-15 0)
(2.17562e-13 5.27233e-15 0)
(-2.10361e-13 6.75704e-15 0)
(-2.23492e-14 9.01153e-15 0)
(-2.70315e-14 1.23229e-14 0)
(-3.30083e-14 1.73314e-14 0)
(-4.0494e-14 2.51365e-14 0)
(-4.92942e-14 3.76235e-14 0)
(-5.78544e-14 5.78544e-14 0)
(-6.14003e-14 8.97816e-14 0)
(-5.10272e-14 1.33963e-13 0)
(-2.0503e-14 1.73683e-13 0)
(2.0503e-14 1.73683e-13 0)
(5.10272e-14 1.33963e-13 0)
(6.14003e-14 8.97816e-14 0)
(5.78544e-14 5.78544e-14 0)
(4.92942e-14 3.76235e-14 0)
(4.0494e-14 2.51365e-14 0)
(3.30083e-14 1.73314e-14 0)
(2.70315e-14 1.23229e-14 0)
(2.23492e-14 9.01153e-15 0)
(2.10361e-13 6.75704e-15 0)
(-2.01794e-13 7.77909e-15 0)
(-1.94614e-14 1.01479e-14 0)
(-2.28201e-14 1.34834e-14 0)
(-2.67434e-14 1.82563e-14 0)
(-3.10575e-14 2.51633e-14 0)
(-3.51605e-14 3.51605e-14 0)
(-3.76235e-14 4.92942e-14 0)
(-3.5885e-14 6.78784e-14 0)
(-2.69651e-14 8.83786e-14 0)
(-1.01802e-14 1.03145e-13 0)
(1.01802e-14 1.03145e-13 0)
(2.69651e-14 8.83786e-14 0)
(3.5885e-14 6.78784e-14 0)
(3.76235e-14 4.92942e-14 0)
(3.51605e-14 3.51605e-14 0)
(3.10575e-14 2.51633e-14 0)
(2.67434e-14 1.82563e-14 0)
(2.28201e-14 1.34834e-14 0)
(1.94614e-14 1.01479e-14 0)
(2.01794e-13 7.77909e-15 0)
(-1.92434e-13 8.36732e-15 0)
(-1.66449e-14 1.06632e-14 0)
(-1.89232e-14 1.37571e-14 0)
(-2.13283e-14 1.79445e-14 0)
(-2.35897e-14 2.35897e-14 0)
(-2.51633e-14 3.10575e-14 0)
(-2.51365e-14 4.0494e-14 0)
(-2.23159e-14 5.13496e-14 0)
(-1.57603e-14 6.17346e-14 0)
(-5.73631e-15 6.8381e-14 0)
(5.73631e-15 6.8381e-14 0)
(1.57603e-14 6.17346e-14 0)
(2.23159e-14 5.13496e-14 0)
(2.51365e-14 4.0494e-14 0)
(2.51633e-14 3.10575e-14 0)
(2.35897e-14 2.35897e-14 0)
(2.13283e-14 1.79445e-14 0)
(1.89232e-14 1.37571e-14 0)
(1.66449e-14 1.06632e-14 0)
(1.92434e-13 8.36732e-15 0)
(-1.82763e-13 8.59274e-15 0)
(-1.40716e-14 1.06993e-14 0)
(-1.55388e-14 1.34185e-14 0)
(-1.69108e-14 1.69108e-14 0)
(-1.79445e-14 2.13283e-14 0)
(-1.82563e-14 2.67434e-14 0)
(-1.73314e-14 3.30083e-14 0)
(-1.46443e-14 3.9557e-14 0)
(-9.9337e-15 4.52706e-14 0)
(-3.53374e-15 4.8682e-14 0)
(3.53374e-15 4.8682e-14 0)
(9.9337e-15 4.52706e-14 0)
(1.46443e-14 3.9557e-14 0)
(1.73314e-14 3.30083e-14 0)
(1.82563e-14 2.67434e-14 0)
(1.79445e-14 2.13283e-14 0)
(1.69108e-14 1.69108e-14 0)
(1.55388e-14 1.34185e-14 0)
(1.40716e-14 1.06993e-14 0)
(1.82763e-13 8.59274e-15 0)
(-1.73142e-13 8.54179e-15 0)
(-1.18191e-14 1.04034e-14 0)
(-1.27117e-14 1.27117e-14 0)
(-1.34185e-14 1.55388e-14 0)
(-1.37571e-14 1.89232e-14 0)
(-1.34834e-14 2.28201e-14 0)
(-1.23229e-14 2.70315e-14 0)
(-1.00536e-14 3.11399e-14 0)
(-6.63531e-15 3.45092e-14 0)
(-2.3249e-15 3.64343e-14 0)
(2.3249e-15 3.64343e-14 0)
(6.63531e-15 3.45092e-14 0)
(1.00536e-14 3.11399e-14 0)
(1.23229e-14 2.70315e-14 0)
(1.34834e-14 2.28201e-14 0)
(1.37571e-14 1.89232e-14 0)
(1.34185e-14 1.55388e-14 0)
(1.27117e-14 1.27117e-14 0)
(1.18191e-14 1.04034e-14 0)
(1.73142e-13 8.54179e-15 0)
(-1.63818e-13 8.29748e-15 0)
(-9.90167e-15 9.90167e-15 0)
(-1.04034e-14 1.18191e-14 0)
(-1.06993e-14 1.40716e-14 0)
(-1.06632e-14 1.66449e-14 0)
(-1.01479e-14 1.94614e-14 0)
(-9.01153e-15 2.23492e-14 0)
(-7.1667e-15 2.50272e-14 0)
(-4.63932e-15 2.71305e-14 0)
(-1.60858e-15 2.82973e-14 0)
(1.60858e-15 2.82973e-14 0)
(4.63932e-15 2.71305e-14 0)
(7.1667e-15 2.50272e-14 0)
(9.01153e-15 2.23492e-14 0)
(1.01479e-14 1.94614e-14 0)
(1.06632e-14 1.66449e-14 0)
(1.06993e-14 1.40716e-14 0)
(1.04034e-14 1.18191e-14 0)
(9.90167e-15 9.90167e-15 0)
(1.63818e-13 8.29748e-15 0)
(-1.54943e-13 1.54943e-13 0)
(-8.29748e-15 1.63818e-13 0)
(-8.54179e-15 1.73142e-13 0)
(-8.59274e-15 1.82763e-13 0)
(-8.36732e-15 1.92434e-13 0)
(-7.77909e-15 2.01794e-13 0)
(-6.75704e-15 2.10361e-13 0)
(-5.27233e-15 2.17562e-13 0)
(-3.36518e-15 2.228e-13 0)
(-1.15804e-15 2.25567e-13 0)
(1.15804e-15 2.25567e-13 0)
(3.36518e-15 2.228e-13 0)
(5.27233e-15 2.17562e-13 0)
(6.75704e-15 2.10361e-13 0)
(7.77909e-15 2.01794e-13 0)
(8.36732e-15 1.92434e-13 0)
(8.59274e-15 1.82763e-13 0)
(8.54179e-15 1.73142e-13 0)
(8.29748e-15 1.63818e-13 0)
(1.54943e-13 1.54943e-13 0)
)
;

boundaryField
{
    movingWall
    {
        type            fixedValue;
        value           uniform (1 0 0);
    }
    fixedWalls
    {
        type            fixedValue;
        value           uniform (0 0 0);
    }
    frontAndBack
    {
        type            empty;
    }
}


// ************************************************************************* //
