/*--------------------------------*- C++ -*----------------------------------*\
| =========                 |                                                 |
| \\      /  F ield         | OpenFOAM: The Open Source CFD Toolbox           |
|  \\    /   O peration     | Version:  v2012                                 |
|   \\  /    A nd           | Website:  www.openfoam.com                      |
|    \\/     M anipulation  |                                                 |
\*---------------------------------------------------------------------------*/
FoamFile
{
    version     2.0;
    format      ascii;
    class       volVectorField;
    location    "8.5";
    object      U;
}
// * * * * * * * * * * * * * * * * * * * * * * * * * * * * * * * * * * * * * //

dimensions      [0 1 -1 0 0 0 0];


internalField   nonuniform List<vector> 
400
(
(1.91678e-11 1.91678e-11 0)
(1.02647e-12 2.02657e-11 0)
(1.05669e-12 2.14192e-11 0)
(1.063e-12 2.26094e-11 0)
(1.03511e-12 2.38058e-11 0)
(9.62341e-13 2.49636e-11 0)
(8.35905e-13 2.60235e-11 0)
(6.52233e-13 2.69143e-11 0)
(4.16302e-13 2.75623e-11 0)
(1.4326e-13 2.79046e-11 0)
(-1.4326e-13 2.79046e-11 0)
(-4.16302e-13 2.75623e-11 0)
(-6.52233e-13 2.69143e-11 0)
(-8.35905e-13 2.60235e-11 0)
(-9.62341e-13 2.49636e-11 0)
(-1.03511e-12 2.38058e-11 0)
(-1.063e-12 2.26094e-11 0)
(-1.05669e-12 2.14192e-11 0)
(-1.02647e-12 2.02657e-11 0)
(-1.91678e-11 1.91678e-11 0)
(2.02657e-11 1.02647e-12 0)
(1.22492e-12 1.22492e-12 0)
(1.28699e-12 1.46213e-12 0)
(1.32359e-12 1.74077e-12 0)
(1.31914e-12 2.05912e-12 0)
(1.25538e-12 2.40754e-12 0)
(1.11481e-12 2.76479e-12 0)
(8.86584e-13 3.09608e-12 0)
(5.73924e-13 3.35628e-12 0)
(1.98996e-13 3.50063e-12 0)
(-1.98996e-13 3.50063e-12 0)
(-5.73924e-13 3.35628e-12 0)
(-8.86584e-13 3.09608e-12 0)
(-1.11481e-12 2.76479e-12 0)
(-1.25538e-12 2.40754e-12 0)
(-1.31914e-12 2.05912e-12 0)
(-1.32359e-12 1.74077e-12 0)
(-1.28699e-12 1.46213e-12 0)
(-1.22492e-12 1.22492e-12 0)
(-2.02657e-11 1.02647e-12 0)
(2.14192e-11 1.05669e-12 0)
(1.46213e-12 1.28699e-12 0)
(1.57254e-12 1.57254e-12 0)
(1.65999e-12 1.92229e-12 0)
(1.70188e-12 2.34096e-12 0)
(1.66801e-12 2.82304e-12 0)
(1.52445e-12 3.34404e-12 0)
(1.24372e-12 3.85228e-12 0)
(8.20846e-13 4.26909e-12 0)
(2.87611e-13 4.50725e-12 0)
(-2.87611e-13 4.50725e-12 0)
(-8.20846e-13 4.26909e-12 0)
(-1.24372e-12 3.85228e-12 0)
(-1.52445e-12 3.34404e-12 0)
(-1.66801e-12 2.82304e-12 0)
(-1.70188e-12 2.34096e-12 0)
(-1.65999e-12 1.92229e-12 0)
(-1.57254e-12 1.57254e-12 0)
(-1.46213e-12 1.28699e-12 0)
(-2.14192e-11 1.05669e-12 0)
(2.26094e-11 1.063e-12 0)
(1.74077e-12 1.32359e-12 0)
(1.92229e-12 1.65999e-12 0)
(2.09201e-12 2.09201e-12 0)
(2.21989e-12 2.6385e-12 0)
(2.25846e-12 3.30839e-12 0)
(2.14405e-12 4.08342e-12 0)
(1.81163e-12 4.89355e-12 0)
(1.22889e-12 5.60037e-12 0)
(4.37154e-13 6.02239e-12 0)
(-4.37154e-13 6.02239e-12 0)
(-1.22889e-12 5.60037e-12 0)
(-1.81163e-12 4.89355e-12 0)
(-2.14405e-12 4.08342e-12 0)
(-2.25846e-12 3.30839e-12 0)
(-2.21989e-12 2.6385e-12 0)
(-2.09201e-12 2.09201e-12 0)
(-1.92229e-12 1.65999e-12 0)
(-1.74077e-12 1.32359e-12 0)
(-2.26094e-11 1.063e-12 0)
(2.38058e-11 1.03511e-12 0)
(2.05912e-12 1.31914e-12 0)
(2.34096e-12 1.70188e-12 0)
(2.6385e-12 2.21989e-12 0)
(2.91826e-12 2.91826e-12 0)
(3.11293e-12 3.84208e-12 0)
(3.10961e-12 5.00946e-12 0)
(2.76067e-12 6.3524e-12 0)
(1.94968e-12 7.63711e-12 0)
(7.09631e-13 8.45933e-12 0)
(-7.09631e-13 8.45933e-12 0)
(-1.94968e-12 7.63711e-12 0)
(-2.76067e-12 6.3524e-12 0)
(-3.10961e-12 5.00946e-12 0)
(-3.11293e-12 3.84208e-12 0)
(-2.91826e-12 2.91826e-12 0)
(-2.6385e-12 2.21989e-12 0)
(-2.34096e-12 1.70188e-12 0)
(-2.05912e-12 1.31914e-12 0)
(-2.38058e-11 1.03511e-12 0)
(2.49636e-11 9.62341e-13 0)
(2.40754e-12 1.25538e-12 0)
(2.82304e-12 1.66801e-12 0)
(3.30839e-12 2.25846e-12 0)
(3.84208e-12 3.11293e-12 0)
(4.34966e-12 4.34966e-12 0)
(4.65436e-12 6.09813e-12 0)
(4.43928e-12 8.39715e-12 0)
(3.33582e-12 1.09332e-11 0)
(1.25938e-12 1.276e-11 0)
(-1.25938e-12 1.276e-11 0)
(-3.33582e-12 1.09332e-11 0)
(-4.43928e-12 8.39715e-12 0)
(-4.65436e-12 6.09813e-12 0)
(-4.34966e-12 4.34966e-12 0)
(-3.84208e-12 3.11293e-12 0)
(-3.30839e-12 2.25846e-12 0)
(-2.82304e-12 1.66801e-12 0)
(-2.40754e-12 1.25538e-12 0)
(-2.49636e-11 9.62341e-13 0)
(2.60235e-11 8.35905e-13 0)
(2.76479e-12 1.11481e-12 0)
(3.34404e-12 1.52445e-12 0)
(4.08342e-12 2.14405e-12 0)
(5.00946e-12 3.10961e-12 0)
(6.09813e-12 4.65436e-12 0)
(7.1571e-12 7.1571e-12 0)
(7.59576e-12 1.11068e-11 0)
(6.31251e-12 1.65724e-11 0)
(2.5364e-12 2.14861e-11 0)
(-2.5364e-12 2.14861e-11 0)
(-6.31251e-12 1.65724e-11 0)
(-7.59576e-12 1.11068e-11 0)
(-7.1571e-12 7.1571e-12 0)
(-6.09813e-12 4.65436e-12 0)
(-5.00946e-12 3.10961e-12 0)
(-4.08342e-12 2.14405e-12 0)
(-3.34404e-12 1.52445e-12 0)
(-2.76479e-12 1.11481e-12 0)
(-2.60235e-11 8.35905e-13 0)
(2.69143e-11 6.52233e-13 0)
(3.09608e-12 8.86584e-13 0)
(3.85228e-12 1.24372e-12 0)
(4.89355e-12 1.81163e-12 0)
(6.3524e-12 2.76067e-12 0)
(8.39715e-12 4.43928e-12 0)
(1.11068e-11 7.59576e-12 0)
(1.38546e-11 1.38546e-11 0)
(1.37152e-11 2.61781e-11 0)
(6.17305e-12 4.38341e-11 0)
(-6.17305e-12 4.38341e-11 0)
(-1.37152e-11 2.61781e-11 0)
(-1.38546e-11 1.38546e-11 0)
(-1.11068e-11 7.59576e-12 0)
(-8.39715e-12 4.43928e-12 0)
(-6.3524e-12 2.76067e-12 0)
(-4.89355e-12 1.81163e-12 0)
(-3.85228e-12 1.24372e-12 0)
(-3.09608e-12 8.86584e-13 0)
(-2.69143e-11 6.52233e-13 0)
(2.75623e-11 4.16302e-13 0)
(3.35628e-12 5.73924e-13 0)
(4.26909e-12 8.20846e-13 0)
(5.60037e-12 1.22889e-12 0)
(7.63711e-12 1.94968e-12 0)
(1.09332e-11 3.33582e-12 0)
(1.65724e-11 6.31251e-12 0)
(2.61781e-11 1.37152e-11 0)
(3.6292e-11 3.6292e-11 0)
(2.01924e-11 1.28135e-10 0)
(-2.01924e-11 1.28135e-10 0)
(-3.6292e-11 3.6292e-11 0)
(-2.61781e-11 1.37152e-11 0)
(-1.65724e-11 6.31251e-12 0)
(-1.09332e-11 3.33582e-12 0)
(-7.63711e-12 1.94968e-12 0)
(-5.60037e-12 1.22889e-12 0)
(-4.26909e-12 8.20846e-13 0)
(-3.35628e-12 5.73924e-13 0)
(-2.75623e-11 4.16302e-13 0)
(2.79046e-11 1.4326e-13 0)
(3.50063e-12 1.98996e-13 0)
(4.50725e-12 2.87611e-13 0)
(6.02239e-12 4.37154e-13 0)
(8.45933e-12 7.09631e-13 0)
(1.276e-11 1.25938e-12 0)
(2.14861e-11 2.5364e-12 0)
(4.38341e-11 6.17305e-12 0)
(1.28135e-10 2.01924e-11 0)
(9.80161e-11 9.80161e-11 0)
(-9.80161e-11 9.80161e-11 0)
(-1.28135e-10 2.01924e-11 0)
(-4.38341e-11 6.17305e-12 0)
(-2.14861e-11 2.5364e-12 0)
(-1.276e-11 1.25938e-12 0)
(-8.45933e-12 7.09631e-13 0)
(-6.02239e-12 4.37154e-13 0)
(-4.50725e-12 2.87611e-13 0)
(-3.50063e-12 1.98996e-13 0)
(-2.79046e-11 1.4326e-13 0)
(2.79046e-11 -1.4326e-13 0)
(3.50063e-12 -1.98996e-13 0)
(4.50725e-12 -2.87611e-13 0)
(6.02239e-12 -4.37154e-13 0)
(8.45933e-12 -7.09631e-13 0)
(1.276e-11 -1.25938e-12 0)
(2.14861e-11 -2.5364e-12 0)
(4.38341e-11 -6.17305e-12 0)
(1.28135e-10 -2.01924e-11 0)
(9.80161e-11 -9.80161e-11 0)
(-9.80161e-11 -9.80161e-11 0)
(-1.28135e-10 -2.01924e-11 0)
(-4.38341e-11 -6.17305e-12 0)
(-2.14861e-11 -2.5364e-12 0)
(-1.276e-11 -1.25938e-12 0)
(-8.45933e-12 -7.09631e-13 0)
(-6.02239e-12 -4.37154e-13 0)
(-4.50725e-12 -2.87611e-13 0)
(-3.50063e-12 -1.98996e-13 0)
(-2.79046e-11 -1.4326e-13 0)
(2.75623e-11 -4.16302e-13 0)
(3.35628e-12 -5.73924e-13 0)
(4.26909e-12 -8.20846e-13 0)
(5.60037e-12 -1.22889e-12 0)
(7.63711e-12 -1.94968e-12 0)
(1.09332e-11 -3.33582e-12 0)
(1.65724e-11 -6.31251e-12 0)
(2.61781e-11 -1.37152e-11 0)
(3.6292e-11 -3.6292e-11 0)
(2.01924e-11 -1.28135e-10 0)
(-2.01924e-11 -1.28135e-10 0)
(-3.6292e-11 -3.6292e-11 0)
(-2.61781e-11 -1.37152e-11 0)
(-1.65724e-11 -6.31251e-12 0)
(-1.09332e-11 -3.33582e-12 0)
(-7.63711e-12 -1.94968e-12 0)
(-5.60037e-12 -1.22889e-12 0)
(-4.26909e-12 -8.20846e-13 0)
(-3.35628e-12 -5.73924e-13 0)
(-2.75623e-11 -4.16302e-13 0)
(2.69143e-11 -6.52233e-13 0)
(3.09608e-12 -8.86584e-13 0)
(3.85228e-12 -1.24372e-12 0)
(4.89355e-12 -1.81163e-12 0)
(6.3524e-12 -2.76067e-12 0)
(8.39715e-12 -4.43928e-12 0)
(1.11068e-11 -7.59576e-12 0)
(1.38546e-11 -1.38546e-11 0)
(1.37152e-11 -2.61781e-11 0)
(6.17305e-12 -4.38341e-11 0)
(-6.17305e-12 -4.38341e-11 0)
(-1.37152e-11 -2.61781e-11 0)
(-1.38546e-11 -1.38546e-11 0)
(-1.11068e-11 -7.59576e-12 0)
(-8.39715e-12 -4.43928e-12 0)
(-6.3524e-12 -2.76067e-12 0)
(-4.89355e-12 -1.81163e-12 0)
(-3.85228e-12 -1.24372e-12 0)
(-3.09608e-12 -8.86584e-13 0)
(-2.69143e-11 -6.52233e-13 0)
(2.60235e-11 -8.35905e-13 0)
(2.76479e-12 -1.11481e-12 0)
(3.34404e-12 -1.52445e-12 0)
(4.08342e-12 -2.14405e-12 0)
(5.00946e-12 -3.10961e-12 0)
(6.09813e-12 -4.65436e-12 0)
(7.1571e-12 -7.1571e-12 0)
(7.59576e-12 -1.11068e-11 0)
(6.31251e-12 -1.65724e-11 0)
(2.5364e-12 -2.14861e-11 0)
(-2.5364e-12 -2.14861e-11 0)
(-6.31251e-12 -1.65724e-11 0)
(-7.59576e-12 -1.11068e-11 0)
(-7.1571e-12 -7.1571e-12 0)
(-6.09813e-12 -4.65436e-12 0)
(-5.00946e-12 -3.10961e-12 0)
(-4.08342e-12 -2.14405e-12 0)
(-3.34404e-12 -1.52445e-12 0)
(-2.76479e-12 -1.11481e-12 0)
(-2.60235e-11 -8.35905e-13 0)
(2.49636e-11 -9.62341e-13 0)
(2.40754e-12 -1.25538e-12 0)
(2.82304e-12 -1.66801e-12 0)
(3.30839e-12 -2.25846e-12 0)
(3.84208e-12 -3.11293e-12 0)
(4.34966e-12 -4.34966e-12 0)
(4.65436e-12 -6.09813e-12 0)
(4.43928e-12 -8.39715e-12 0)
(3.33582e-12 -1.09332e-11 0)
(1.25938e-12 -1.276e-11 0)
(-1.25938e-12 -1.276e-11 0)
(-3.33582e-12 -1.09332e-11 0)
(-4.43928e-12 -8.39715e-12 0)
(-4.65436e-12 -6.09813e-12 0)
(-4.34966e-12 -4.34966e-12 0)
(-3.84208e-12 -3.11293e-12 0)
(-3.30839e-12 -2.25846e-12 0)
(-2.82304e-12 -1.66801e-12 0)
(-2.40754e-12 -1.25538e-12 0)
(-2.49636e-11 -9.62341e-13 0)
(2.38058e-11 -1.03511e-12 0)
(2.05912e-12 -1.31914e-12 0)
(2.34096e-12 -1.70188e-12 0)
(2.6385e-12 -2.21989e-12 0)
(2.91826e-12 -2.91826e-12 0)
(3.11293e-12 -3.84208e-12 0)
(3.10961e-12 -5.00946e-12 0)
(2.76067e-12 -6.3524e-12 0)
(1.94968e-12 -7.63711e-12 0)
(7.09631e-13 -8.45933e-12 0)
(-7.09631e-13 -8.45933e-12 0)
(-1.94968e-12 -7.63711e-12 0)
(-2.76067e-12 -6.3524e-12 0)
(-3.10961e-12 -5.00946e-12 0)
(-3.11293e-12 -3.84208e-12 0)
(-2.91826e-12 -2.91826e-12 0)
(-2.6385e-12 -2.21989e-12 0)
(-2.34096e-12 -1.70188e-12 0)
(-2.05912e-12 -1.31914e-12 0)
(-2.38058e-11 -1.03511e-12 0)
(2.26094e-11 -1.063e-12 0)
(1.74077e-12 -1.32359e-12 0)
(1.92229e-12 -1.65999e-12 0)
(2.09201e-12 -2.09201e-12 0)
(2.21989e-12 -2.6385e-12 0)
(2.25846e-12 -3.30839e-12 0)
(2.14405e-12 -4.08342e-12 0)
(1.81163e-12 -4.89355e-12 0)
(1.22889e-12 -5.60037e-12 0)
(4.37154e-13 -6.02239e-12 0)
(-4.37154e-13 -6.02239e-12 0)
(-1.22889e-12 -5.60037e-12 0)
(-1.81163e-12 -4.89355e-12 0)
(-2.14405e-12 -4.08342e-12 0)
(-2.25846e-12 -3.30839e-12 0)
(-2.21989e-12 -2.6385e-12 0)
(-2.09201e-12 -2.09201e-12 0)
(-1.92229e-12 -1.65999e-12 0)
(-1.74077e-12 -1.32359e-12 0)
(-2.26094e-11 -1.063e-12 0)
(2.14192e-11 -1.05669e-12 0)
(1.46213e-12 -1.28699e-12 0)
(1.57254e-12 -1.57254e-12 0)
(1.65999e-12 -1.92229e-12 0)
(1.70188e-12 -2.34096e-12 0)
(1.66801e-12 -2.82304e-12 0)
(1.52445e-12 -3.34404e-12 0)
(1.24372e-12 -3.85228e-12 0)
(8.20846e-13 -4.26909e-12 0)
(2.87611e-13 -4.50725e-12 0)
(-2.87611e-13 -4.50725e-12 0)
(-8.20846e-13 -4.26909e-12 0)
(-1.24372e-12 -3.85228e-12 0)
(-1.52445e-12 -3.34404e-12 0)
(-1.66801e-12 -2.82304e-12 0)
(-1.70188e-12 -2.34096e-12 0)
(-1.65999e-12 -1.92229e-12 0)
(-1.57254e-12 -1.57254e-12 0)
(-1.46213e-12 -1.28699e-12 0)
(-2.14192e-11 -1.05669e-12 0)
(2.02657e-11 -1.02647e-12 0)
(1.22492e-12 -1.22492e-12 0)
(1.28699e-12 -1.46213e-12 0)
(1.32359e-12 -1.74077e-12 0)
(1.31914e-12 -2.05912e-12 0)
(1.25538e-12 -2.40754e-12 0)
(1.11481e-12 -2.76479e-12 0)
(8.86584e-13 -3.09608e-12 0)
(5.73924e-13 -3.35628e-12 0)
(1.98996e-13 -3.50063e-12 0)
(-1.98996e-13 -3.50063e-12 0)
(-5.73924e-13 -3.35628e-12 0)
(-8.86584e-13 -3.09608e-12 0)
(-1.11481e-12 -2.76479e-12 0)
(-1.25538e-12 -2.40754e-12 0)
(-1.31914e-12 -2.05912e-12 0)
(-1.32359e-12 -1.74077e-12 0)
(-1.28699e-12 -1.46213e-12 0)
(-1.22492e-12 -1.22492e-12 0)
(-2.02657e-11 -1.02647e-12 0)
(1.91678e-11 -1.91678e-11 0)
(1.02647e-12 -2.02657e-11 0)
(1.05669e-12 -2.14192e-11 0)
(1.063e-12 -2.26094e-11 0)
(1.03511e-12 -2.38058e-11 0)
(9.62341e-13 -2.49636e-11 0)
(8.35905e-13 -2.60235e-11 0)
(6.52233e-13 -2.69143e-11 0)
(4.16302e-13 -2.75623e-11 0)
(1.4326e-13 -2.79046e-11 0)
(-1.4326e-13 -2.79046e-11 0)
(-4.16302e-13 -2.75623e-11 0)
(-6.52233e-13 -2.69143e-11 0)
(-8.35905e-13 -2.60235e-11 0)
(-9.62341e-13 -2.49636e-11 0)
(-1.03511e-12 -2.38058e-11 0)
(-1.063e-12 -2.26094e-11 0)
(-1.05669e-12 -2.14192e-11 0)
(-1.02647e-12 -2.02657e-11 0)
(-1.91678e-11 -1.91678e-11 0)
)
;

boundaryField
{
    movingWall
    {
        type            fixedValue;
        value           uniform (1 0 0);
    }
    fixedWalls
    {
        type            fixedValue;
        value           uniform (0 0 0);
    }
    frontAndBack
    {
        type            empty;
    }
}


// ************************************************************************* //
