/*--------------------------------*- C++ -*----------------------------------*\
| =========                 |                                                 |
| \\      /  F ield         | OpenFOAM: The Open Source CFD Toolbox           |
|  \\    /   O peration     | Version:  v2012                                 |
|   \\  /    A nd           | Website:  www.openfoam.com                      |
|    \\/     M anipulation  |                                                 |
\*---------------------------------------------------------------------------*/
FoamFile
{
    version     2.0;
    format      ascii;
    class       volScalarField;
    location    "0.1";
    object      p;
}
// * * * * * * * * * * * * * * * * * * * * * * * * * * * * * * * * * * * * * //

dimensions      [0 2 -2 0 0 0 0];


internalField   nonuniform List<scalar> 
400
(
-0.398171
-0.399984
-0.402907
-0.405132
-0.405403
-0.4031
-0.397966
-0.390175
-0.380246
-0.368776
-0.356536
-0.344508
-0.333465
-0.3238
-0.31578
-0.309591
-0.305148
-0.302002
-0.299445
-0.29652
-0.396468
-0.398295
-0.401612
-0.404247
-0.404782
-0.402612
-0.397562
-0.389779
-0.379821
-0.368421
-0.356321
-0.344389
-0.333448
-0.323962
-0.31614
-0.310073
-0.305583
-0.301979
-0.29805
-0.291964
-0.393883
-0.395578
-0.399203
-0.402149
-0.402922
-0.400899
-0.395975
-0.388383
-0.378686
-0.367645
-0.355974
-0.344448
-0.333864
-0.32472
-0.317185
-0.311174
-0.306117
-0.300533
-0.291859
-0.276822
-0.392323
-0.393939
-0.397981
-0.401278
-0.40223
-0.400262
-0.395351
-0.387793
-0.378169
-0.367304
-0.355879
-0.344529
-0.334032
-0.32498
-0.317539
-0.311353
-0.305104
-0.295549
-0.276082
-0.235445
-0.393471
-0.395048
-0.399485
-0.403075
-0.404069
-0.401934
-0.396772
-0.388955
-0.37903
-0.367922
-0.356335
-0.344742
-0.333869
-0.324487
-0.316891
-0.310539
-0.30336
-0.289603
-0.252804
-0.12615
-0.398624
-0.400126
-0.404815
-0.408497
-0.4093
-0.406697
-0.400936
-0.392517
-0.381865
-0.369965
-0.35763
-0.345243
-0.333442
-0.323183
-0.315092
-0.30896
-0.303389
-0.294784
-0.276187
-0.23557
-0.408952
-0.410224
-0.414912
-0.418366
-0.418656
-0.415231
-0.408449
-0.399012
-0.387177
-0.373876
-0.360058
-0.346146
-0.332716
-0.320825
-0.31145
-0.304925
-0.300728
-0.296786
-0.289861
-0.274774
-0.425624
-0.426453
-0.430782
-0.43356
-0.432896
-0.428209
-0.419871
-0.408839
-0.395242
-0.37986
-0.363707
-0.347356
-0.331432
-0.317026
-0.30533
-0.297133
-0.292625
-0.290621
-0.288965
-0.282572
-0.449974
-0.450105
-0.45358
-0.455024
-0.452722
-0.446144
-0.435558
-0.422144
-0.406016
-0.387805
-0.368463
-0.348695
-0.329273
-0.311333
-0.296163
-0.284822
-0.277944
-0.275049
-0.274419
-0.270556
-0.483564
-0.482621
-0.484506
-0.48364
-0.478628
-0.469207
-0.455516
-0.438798
-0.419246
-0.397415
-0.374119
-0.350065
-0.326124
-0.303472
-0.283421
-0.267184
-0.255699
-0.249233
-0.246576
-0.242337
-0.528182
-0.52555
-0.524693
-0.520133
-0.510913
-0.497299
-0.479462
-0.458505
-0.43467
-0.408485
-0.380574
-0.35149
-0.322029
-0.293305
-0.266605
-0.243285
-0.224636
-0.211781
-0.204507
-0.198241
-0.585799
-0.580576
-0.575243
-0.565106
-0.549789
-0.530244
-0.506958
-0.48077
-0.451875
-0.420705
-0.387628
-0.352882
-0.316959
-0.280724
-0.245331
-0.212289
-0.183466
-0.161081
-0.146551
-0.136934
-0.658591
-0.64966
-0.637398
-0.61904
-0.595205
-0.567563
-0.537138
-0.504539
-0.469788
-0.433056
-0.394325
-0.353375
-0.31018
-0.265145
-0.21915
-0.173743
-0.131449
-0.0958894
-0.0709467
-0.0563925
-0.748982
-0.735051
-0.71247
-0.68203
-0.646303
-0.607856
-0.56822
-0.527934
-0.486686
-0.444037
-0.399331
-0.351761
-0.300677
-0.24588
-0.187783
-0.127679
-0.0684872
-0.0154036
0.0241214
0.0456127
-0.859427
-0.838785
-0.801171
-0.75322
-0.701084
-0.648771
-0.597917
-0.54887
-0.500826
-0.452366
-0.401834
-0.347645
-0.288481
-0.22345
-0.152229
-0.0753855
0.00434469
0.0802504
0.139923
0.170587
-0.9916
-0.961712
-0.902633
-0.830382
-0.756638
-0.687362
-0.623883
-0.565428
-0.510335
-0.456203
-0.400342
-0.340268
-0.273827
-0.19917
-0.114784
-0.0198774
0.0837525
0.188285
0.274936
0.317241
-1.14464
-1.10212
-1.01335
-0.909388
-0.809081
-0.719521
-0.641969
-0.574213
-0.512853
-0.454067
-0.394127
-0.329714
-0.257761
-0.175197
-0.0788927
0.0338444
0.163025
0.301072
0.422556
0.480113
-1.31166
-1.25275
-1.12453
-0.981903
-0.852072
-0.742201
-0.651367
-0.575373
-0.508969
-0.446895
-0.384461
-0.317583
-0.242261
-0.154156
-0.0485233
0.0793084
0.232037
0.405113
0.569305
0.646906
-1.47289
-1.39423
-1.21848
-1.03696
-0.880445
-0.753696
-0.652676
-0.570836
-0.501236
-0.437493
-0.374175
-0.306527
-0.229731
-0.138502
-0.0271017
0.110505
0.279912
0.482297
0.691533
0.791312
-1.59806
-1.50237
-1.28221
-1.07278
-0.899941
-0.763258
-0.655935
-0.569972
-0.497653
-0.432154
-0.367662
-0.298933
-0.22061
-0.127045
-0.0122949
0.130279
0.307987
0.526362
0.769941
0.886218
)
;

boundaryField
{
    movingWall
    {
        type            zeroGradient;
    }
    fixedWalls
    {
        type            zeroGradient;
    }
    frontAndBack
    {
        type            empty;
    }
}


// ************************************************************************* //
