/*--------------------------------*- C++ -*----------------------------------*\
| =========                 |                                                 |
| \\      /  F ield         | OpenFOAM: The Open Source CFD Toolbox           |
|  \\    /   O peration     | Version:  v2012                                 |
|   \\  /    A nd           | Website:  www.openfoam.com                      |
|    \\/     M anipulation  |                                                 |
\*---------------------------------------------------------------------------*/
FoamFile
{
    version     2.0;
    format      ascii;
    class       surfaceScalarField;
    location    "0.1";
    object      phi;
}
// * * * * * * * * * * * * * * * * * * * * * * * * * * * * * * * * * * * * * //

dimensions      [0 3 -1 0 0 0 0];
oriented        oriented;


internalField   nonuniform List<scalar> 
760
(
-3.74317e-08
3.80486e-08
-9.33866e-08
1.41542e-07
-1.82408e-07
2.40509e-07
-3.02612e-07
3.14489e-07
-4.41542e-07
3.53901e-07
-5.84363e-07
3.56753e-07
-7.16565e-07
3.264e-07
-8.2601e-07
2.6859e-07
-9.04317e-07
1.90819e-07
-9.46158e-07
1.01855e-07
-9.49873e-07
9.21663e-09
-9.19167e-07
-8.06141e-08
-8.614e-07
-1.60362e-07
-7.84148e-07
-2.23494e-07
-6.94192e-07
-2.66992e-07
-5.96899e-07
-2.92046e-07
-4.92688e-07
-3.0313e-07
-3.72595e-07
-3.03905e-07
-2.10893e-07
-2.83819e-07
-1.84778e-07
-1.4972e-07
1.00549e-07
-3.34116e-07
3.32004e-07
-5.83187e-07
5.39967e-07
-8.94903e-07
6.8949e-07
-1.24274e-06
7.65293e-07
-1.59371e-06
7.65326e-07
-1.91556e-06
6.97015e-07
-2.18047e-06
5.72882e-07
-2.36894e-06
4.08019e-07
-2.47049e-06
2.19392e-07
-2.48279e-06
2.27036e-08
-2.41283e-06
-1.679e-07
-2.27597e-06
-3.37427e-07
-2.09088e-06
-4.71843e-07
-1.87492e-06
-5.6303e-07
-1.63972e-06
-6.12055e-07
-1.38152e-06
-6.29768e-07
-1.06775e-06
-6.31365e-07
-6.14555e-07
-6.11775e-07
-4.50896e-07
-2.74966e-07
2.08312e-07
-5.9115e-07
6.14088e-07
-9.8836e-07
9.52791e-07
-1.46497e-06
1.18477e-06
-1.98441e-06
1.29395e-06
-2.5007e-06
1.28157e-06
-2.96912e-06
1.1611e-06
-3.35189e-06
9.52842e-07
-3.62269e-06
6.80073e-07
-3.76812e-06
3.68733e-07
-3.78596e-06
4.39518e-08
-3.68538e-06
-2.70975e-07
-3.48712e-06
-5.51679e-07
-3.2193e-06
-7.73842e-07
-2.91113e-06
-9.19915e-07
-2.58455e-06
-9.85877e-07
-2.23558e-06
-9.85796e-07
-1.80022e-06
-9.53001e-07
-1.07951e-06
-9.27906e-07
-8.46739e-07
-4.02493e-07
3.68499e-07
-8.48356e-07
1.00508e-06
-1.38478e-06
1.50277e-06
-2.0095e-06
1.8273e-06
-2.67674e-06
1.96719e-06
-3.33051e-06
1.93068e-06
-3.91748e-06
1.74007e-06
-4.3932e-06
1.42511e-06
-4.72708e-06
1.01796e-06
-4.90452e-06
5.5458e-07
-4.92386e-06
7.11359e-08
-4.79495e-06
-3.98156e-07
-4.54153e-06
-8.17534e-07
-4.20016e-06
-1.14921e-06
-3.81456e-06
-1.36032e-06
-3.42592e-06
-1.43141e-06
-3.04886e-06
-1.36286e-06
-2.609e-06
-1.18105e-06
-1.67466e-06
-9.40606e-07
-6.81755e-07
-5.29978e-07
5.79931e-07
-1.1029e-06
1.50479e-06
-1.77111e-06
2.1903e-06
-2.53097e-06
2.61659e-06
-3.32822e-06
2.7832e-06
-4.09861e-06
2.70941e-06
-4.78312e-06
2.4292e-06
-5.33351e-06
1.98411e-06
-5.71631e-06
1.41614e-06
-5.91637e-06
7.71295e-07
-5.93268e-06
9.77247e-08
-5.77416e-06
-5.57516e-07
-5.46389e-06
-1.14578e-06
-5.04281e-06
-1.61439e-06
-4.56652e-06
-1.91135e-06
-4.09862e-06
-1.99305e-06
-3.70098e-06
-1.82999e-06
-3.43078e-06
-1.4121e-06
-2.4481e-06
-7.48115e-07
8.84641e-08
-6.58e-07
8.40147e-07
-1.35611e-06
2.10871e-06
-2.1496e-06
3.00918e-06
-3.033e-06
3.54422e-06
-3.9447e-06
3.73109e-06
-4.81385e-06
3.60511e-06
-5.57817e-06
3.21473e-06
-6.18845e-06
2.61568e-06
-6.60953e-06
1.86142e-06
-6.82519e-06
1.00783e-06
-6.83455e-06
1.14472e-07
-6.64447e-06
-7.5806e-07
-6.2734e-06
-1.54739e-06
-5.7584e-06
-2.18652e-06
-5.15222e-06
-2.60532e-06
-4.51022e-06
-2.73692e-06
-3.86256e-06
-2.526e-06
-3.14938e-06
-1.94202e-06
-1.94508e-06
-9.96886e-07
1.45491e-07
-7.88076e-07
1.14778e-06
-1.61012e-06
2.81244e-06
-2.52215e-06
3.95106e-06
-3.51681e-06
4.59733e-06
-4.5268e-06
4.79371e-06
-5.47671e-06
4.59759e-06
-6.30312e-06
4.07519e-06
-6.95874e-06
3.29848e-06
-7.40861e-06
2.3345e-06
-7.63492e-06
1.24924e-06
-7.63586e-06
1.11912e-07
-7.41593e-06
-1.00489e-06
-6.98742e-06
-2.02559e-06
-6.37893e-06
-2.86995e-06
-5.63456e-06
-3.4525e-06
-4.80193e-06
-3.68751e-06
-3.90739e-06
-3.50092e-06
-2.91661e-06
-2.85282e-06
-1.64141e-06
-1.77586e-06
-4.64011e-07
-9.2089e-07
1.50236e-06
-1.86563e-06
3.61089e-06
-2.88822e-06
5.00421e-06
-3.9792e-06
5.75714e-06
-5.0679e-06
5.94583e-06
-6.07728e-06
5.65754e-06
-6.94492e-06
4.98073e-06
-7.62813e-06
4.00512e-06
-8.09506e-06
2.81295e-06
-8.32725e-06
1.48084e-06
-8.32114e-06
8.53769e-08
-8.07876e-06
-1.29262e-06
-7.60693e-06
-2.56717e-06
-6.92521e-06
-3.64615e-06
-6.06803e-06
-4.42962e-06
-5.07855e-06
-4.8128e-06
-3.99386e-06
-4.69801e-06
-2.82515e-06
-4.01669e-06
-1.50435e-06
-2.76754e-06
-1.03945e-06
-1.05574e-06
1.90309e-06
-2.12079e-06
4.49559e-06
-3.24331e-06
6.15034e-06
-4.4107e-06
6.99612e-06
-5.55149e-06
7.15266e-06
-6.59142e-06
6.74624e-06
-7.47226e-06
5.89388e-06
-8.15836e-06
4.70433e-06
-8.62467e-06
3.27508e-06
-8.85518e-06
1.6928e-06
-8.84526e-06
3.88793e-08
-8.59431e-06
-1.60263e-06
-8.1042e-06
-3.14044e-06
-7.38579e-06
-4.47318e-06
-6.46301e-06
-5.48618e-06
-5.37258e-06
-6.0516e-06
-4.15894e-06
-6.03806e-06
-2.86571e-06
-5.32894e-06
-1.48396e-06
-3.85804e-06
-1.59865e-06
-1.19011e-06
2.34729e-06
-2.36964e-06
5.45234e-06
-3.57587e-06
7.36204e-06
-4.79137e-06
8.27619e-06
-5.94621e-06
8.36957e-06
-6.97487e-06
7.81683e-06
-7.82887e-06
6.77095e-06
-8.48285e-06
5.36153e-06
-8.9223e-06
3.69969e-06
-9.13819e-06
1.87935e-06
-9.12766e-06
-1.68699e-08
-8.88788e-06
-1.90696e-06
-8.41518e-06
-3.70044e-06
-7.71032e-06
-5.29119e-06
-6.78356e-06
-6.55078e-06
-5.65853e-06
-7.3248e-06
-4.37599e-06
-7.43861e-06
-2.99427e-06
-6.71364e-06
-1.53492e-06
-5.00179e-06
-2.16265e-06
-1.31769e-06
2.82901e-06
-2.59811e-06
6.45917e-06
-3.8611e-06
8.60078e-06
-5.08306e-06
9.54617e-06
-6.19824e-06
9.53944e-06
-7.1566e-06
8.81221e-06
-7.92757e-06
7.55993e-06
-8.50141e-06
5.93532e-06
-8.87808e-06
4.06055e-06
-9.06024e-06
2.03185e-06
-9.05055e-06
-7.19251e-08
-8.84537e-06
-2.17608e-06
-8.43428e-06
-4.19696e-06
-7.80471e-06
-6.02941e-06
-6.94752e-06
-7.5352e-06
-5.86435e-06
-8.53423e-06
-4.57914e-06
-8.80421e-06
-3.14894e-06
-8.09475e-06
-1.61374e-06
-6.16121e-06
-2.73878e-06
-1.42363e-06
3.33722e-06
-2.7763e-06
7.48194e-06
-4.05144e-06
9.81136e-06
-5.21891e-06
1.07353e-05
-6.22158e-06
1.05852e-05
-7.03181e-06
9.65814e-06
-7.64612e-06
8.19525e-06
-8.07774e-06
6.37374e-06
-8.34576e-06
4.32314e-06
-8.46841e-06
2.13556e-06
-8.45736e-06
-1.20071e-07
-8.31005e-06
-2.38151e-06
-8.00877e-06
-4.57716e-06
-7.52439e-06
-6.60923e-06
-6.82195e-06
-8.337e-06
-5.87131e-06
-9.56202e-06
-4.6666e-06
-1.00183e-05
-3.24975e-06
-9.37838e-06
-1.6738e-06
-7.28416e-06
-3.31924e-06
-1.47667e-06
3.85145e-06
-2.84644e-06
8.46364e-06
-4.06366e-06
1.09095e-05
-5.09028e-06
1.17428e-05
-5.88539e-06
1.14023e-05
-6.45139e-06
1.02593e-05
-6.82033e-06
8.59839e-06
-7.03604e-06
6.61814e-06
-7.14155e-06
4.45012e-06
-7.17305e-06
2.1755e-06
-7.15302e-06
-1.52987e-07
-7.08181e-06
-2.49023e-06
-6.93532e-06
-4.78116e-06
-6.66732e-06
-6.94217e-06
-6.21377e-06
-8.84058e-06
-5.50498e-06
-1.02729e-05
-4.4925e-06
-1.09423e-05
-3.18926e-06
-1.04463e-05
-1.65685e-06
-8.29562e-06
-3.87977e-06
-1.41727e-06
4.3333e-06
-2.70324e-06
9.30762e-06
-3.75643e-06
1.17651e-05
-4.52449e-06
1.24284e-05
-4.99279e-06
1.18588e-05
-5.20333e-06
1.0505e-05
-5.22974e-06
8.68624e-06
-5.15188e-06
6.61157e-06
-5.03989e-06
4.40674e-06
-4.94761e-06
2.13738e-06
-4.90704e-06
-1.63355e-07
-4.92196e-06
-2.47061e-06
-4.96487e-06
-4.74999e-06
-4.97661e-06
-6.93956e-06
-4.86726e-06
-8.92735e-06
-4.52566e-06
-1.05225e-05
-3.85066e-06
-1.14173e-05
-2.81196e-06
-1.11484e-05
-1.47659e-06
-9.08488e-06
-4.37279e-06
-1.13661e-06
4.71396e-06
-2.15753e-06
9.86e-06
-2.8866e-06
1.21883e-05
-3.24238e-06
1.26085e-05
-3.24488e-06
1.1801e-05
-2.98567e-06
1.02761e-05
-2.58154e-06
8.3744e-06
-2.14589e-06
6.29936e-06
-1.77335e-06
4.16054e-06
-1.53168e-06
2.00518e-06
-1.45871e-06
-1.52233e-07
-1.56092e-06
-2.30682e-06
-1.81174e-06
-4.44718e-06
-2.14802e-06
-6.53922e-06
-2.46459e-06
-8.50307e-06
-2.61606e-06
-1.01786e-05
-2.44747e-06
-1.12744e-05
-1.87805e-06
-1.12987e-05
-9.902e-07
-9.4935e-06
-4.72072e-06
-4.321e-07
4.8796e-06
-8.67804e-07
9.89641e-06
-1.03568e-06
1.19251e-05
-7.95436e-07
1.20589e-05
-1.97415e-07
1.10612e-05
6.1864e-07
9.46253e-06
1.50016e-06
7.59632e-06
2.31442e-06
5.64551e-06
2.9567e-06
3.69524e-06
3.35449e-06
1.77314e-06
3.46828e-06
-1.21583e-07
3.28854e-06
-1.99995e-06
2.83532e-06
-3.87123e-06
2.16442e-06
-5.72922e-06
1.38019e-06
-7.53008e-06
6.43455e-07
-9.15726e-06
1.45366e-07
-1.0367e-05
-1.28849e-09
-1.06967e-05
5.17919e-08
-9.32239e-06
-4.81473e-06
1.09171e-06
4.65988e-06
1.78261e-06
9.12473e-06
2.49542e-06
1.06796e-05
3.50651e-06
1.05511e-05
4.77567e-06
9.49417e-06
6.15285e-06
7.99286e-06
7.4778e-06
6.33041e-06
8.61801e-06
4.65386e-06
9.47792e-06
3.02326e-06
9.99625e-06
1.45095e-06
1.01402e-05
-7.335e-08
9.89852e-06
-1.56999e-06
9.28008e-06
-3.06141e-06
8.32306e-06
-4.56073e-06
7.11216e-06
-6.05282e-06
5.79225e-06
-7.46663e-06
4.54484e-06
-8.63146e-06
3.44526e-06
-9.18439e-06
2.1048e-06
-8.35754e-06
-4.50796e-06
4.26464e-06
3.86029e-06
6.90524e-06
7.27368e-06
8.82016e-06
8.23826e-06
1.06656e-05
7.96869e-06
1.25197e-05
7.06319e-06
1.42928e-05
5.87773e-06
1.58713e-05
4.61127e-06
1.71604e-05
3.36447e-06
1.80952e-05
2.17643e-06
1.86387e-05
1.05227e-06
1.87719e-05
-2.00942e-08
1.84852e-05
-1.06211e-06
1.77772e-05
-2.09864e-06
1.66648e-05
-3.1482e-06
1.51987e-05
-4.20988e-06
1.34729e-05
-5.24864e-06
1.15954e-05
-6.17086e-06
9.48078e-06
-6.75673e-06
6.07455e-06
-6.45307e-06
-3.65198e-06
1.1076e-05
2.24402e-06
1.65329e-05
4.11625e-06
1.9603e-05
4.54733e-06
2.19499e-05
4.3421e-06
2.39578e-05
3.82095e-06
2.56913e-05
3.16404e-06
2.7131e-05
2.47291e-06
2.82452e-05
1.79956e-06
2.9013e-05
1.16485e-06
2.94262e-05
5.71688e-07
2.94821e-05
1.27167e-08
2.91755e-05
-5.25785e-07
2.85008e-05
-1.05981e-06
2.74598e-05
-1.60122e-06
2.60695e-05
-2.15155e-06
2.43617e-05
-2.69785e-06
2.23456e-05
-3.20361e-06
1.97093e-05
-3.57722e-06
1.39343e-05
-3.55974e-06
-2.106e-06
2.7305e-05
3.44069e-05
3.70479e-05
3.86337e-05
3.98016e-05
4.07157e-05
4.14188e-05
4.19234e-05
4.22372e-05
4.23678e-05
4.23198e-05
4.20922e-05
4.16811e-05
4.10834e-05
4.0298e-05
3.93261e-05
3.81572e-05
3.65552e-05
3.05215e-05
)
;

boundaryField
{
    movingWall
    {
        type            calculated;
        value           uniform 0;
    }
    fixedWalls
    {
        type            calculated;
        value           uniform 0;
    }
    frontAndBack
    {
        type            empty;
        value           nonuniform List<scalar> 0();
    }
}


// ************************************************************************* //
