/*--------------------------------*- C++ -*----------------------------------*\
| =========                 |                                                 |
| \\      /  F ield         | OpenFOAM: The Open Source CFD Toolbox           |
|  \\    /   O peration     | Version:  v2012                                 |
|   \\  /    A nd           | Website:  www.openfoam.com                      |
|    \\/     M anipulation  |                                                 |
\*---------------------------------------------------------------------------*/
FoamFile
{
    version     2.0;
    format      ascii;
    class       volVectorField;
    location    "0.1";
    object      U;
}
// * * * * * * * * * * * * * * * * * * * * * * * * * * * * * * * * * * * * * //

dimensions      [0 1 -1 0 0 0 0];


internalField   nonuniform List<vector> 
400
(
(-0.000338293 0.000327828 0)
(-0.00115897 0.00130788 0)
(-0.00257649 0.00227753 0)
(-0.00471984 0.00301958 0)
(-0.00738464 0.00342472 0)
(-0.010277 0.00346867 0)
(-0.0130975 0.00318375 0)
(-0.0155651 0.0026224 0)
(-0.0174753 0.00186032 0)
(-0.0186974 0.00099008 0)
(-0.0191489 8.50505e-05 0)
(-0.018846 -0.000794055 0)
(-0.0179207 -0.00157367 0)
(-0.0165353 -0.00218903 0)
(-0.0148306 -0.00261492 0)
(-0.0129371 -0.00286447 0)
(-0.0109389 -0.00297178 0)
(-0.00876867 -0.0029491 0)
(-0.00613514 -0.00266329 0)
(-0.00230058 -0.00161271 0)
(-0.00143272 0.00119412 0)
(-0.00455608 0.00435379 0)
(-0.00880857 0.00734283 0)
(-0.0145189 0.00955999 0)
(-0.0212772 0.0107313 0)
(-0.0284323 0.0108015 0)
(-0.0353161 0.00987225 0)
(-0.0413062 0.00812119 0)
(-0.0459126 0.00577244 0)
(-0.0488449 0.0030841 0)
(-0.0499745 0.000283615 0)
(-0.0493372 -0.00243051 0)
(-0.047176 -0.0048408 0)
(-0.0438626 -0.00675074 0)
(-0.0397725 -0.00806477 0)
(-0.0352243 -0.00881739 0)
(-0.0303645 -0.0091534 0)
(-0.0248963 -0.00920712 0)
(-0.0178138 -0.00868946 0)
(-0.00676837 -0.00577842 0)
(-0.00268038 0.00282785 0)
(-0.00831824 0.00892636 0)
(-0.0153278 0.0142559 0)
(-0.0242066 0.0180196 0)
(-0.0343922 0.0198804 0)
(-0.0449843 0.0198116 0)
(-0.0550437 0.0180083 0)
(-0.0637211 0.0147941 0)
(-0.0703544 0.0105483 0)
(-0.0745533 0.00569159 0)
(-0.0761713 0.00062453 0)
(-0.0752669 -0.00428549 0)
(-0.0721481 -0.00865627 0)
(-0.0673366 -0.012123 0)
(-0.0614353 -0.0144564 0)
(-0.0550099 -0.0156648 0)
(-0.0483722 -0.0160373 0)
(-0.0410509 -0.0160475 0)
(-0.0309578 -0.0157815 0)
(-0.0122225 -0.0122574 0)
(-0.00396473 0.00550464 0)
(-0.012135 0.0156372 0)
(-0.0217992 0.0238558 0)
(-0.0335918 0.0293711 0)
(-0.0467881 0.0318775 0)
(-0.0602815 0.0314514 0)
(-0.0729391 0.0284357 0)
(-0.0837601 0.0233196 0)
(-0.0919679 0.0166546 0)
(-0.0971154 0.00905772 0)
(-0.0990656 0.00113354 0)
(-0.0978889 -0.00655351 0)
(-0.0939092 -0.0134109 0)
(-0.087752 -0.0188307 0)
(-0.0802543 -0.0223402 0)
(-0.0723282 -0.0237702 0)
(-0.0647088 -0.0233945 0)
(-0.0572455 -0.0220725 0)
(-0.0471143 -0.0213347 0)
(-0.0198719 -0.0216121 0)
(-0.00525483 0.00923533 0)
(-0.0159443 0.0245658 0)
(-0.0281717 0.0362552 0)
(-0.0426725 0.0437207 0)
(-0.0585663 0.0468099 0)
(-0.0745623 0.0457758 0)
(-0.0893821 0.0411673 0)
(-0.101943 0.0336846 0)
(-0.111398 0.0240636 0)
(-0.117255 0.0131255 0)
(-0.1194 0.00171189 0)
(-0.117907 -0.00937272 0)
(-0.113059 -0.0192905 0)
(-0.105496 -0.0271377 0)
(-0.0962158 -0.0320725 0)
(-0.086445 -0.033486 0)
(-0.0774998 -0.03112 0)
(-0.0705394 -0.0251694 0)
(-0.0666916 -0.0162895 0)
(-0.0312325 -0.00565808 0)
(-0.00655547 0.0139619 0)
(-0.0197645 0.0356257 0)
(-0.0344799 0.0513568 0)
(-0.0515039 0.0609431 0)
(-0.0698161 0.064518 0)
(-0.0879718 0.0626005 0)
(-0.104582 0.0560007 0)
(-0.118545 0.0456797 0)
(-0.128993 0.0325818 0)
(-0.135388 0.0177263 0)
(-0.137619 0.00219709 0)
(-0.135762 -0.0129279 0)
(-0.130016 -0.0265405 0)
(-0.120919 -0.037438 0)
(-0.109417 -0.0443817 0)
(-0.0966722 -0.046236 0)
(-0.0837365 -0.0420796 0)
(-0.0707658 -0.0313145 0)
(-0.0552092 -0.0136351 0)
(-0.0225941 0.00919664 0)
(-0.00788515 0.019644 0)
(-0.0236379 0.0487227 0)
(-0.040767 0.0690105 0)
(-0.0601191 0.0808256 0)
(-0.0805532 0.0847257 0)
(-0.100519 0.0816038 0)
(-0.11855 0.0725883 0)
(-0.133575 0.0589475 0)
(-0.144774 0.0418752 0)
(-0.15157 0.022587 0)
(-0.153827 0.00238179 0)
(-0.151608 -0.0173945 0)
(-0.145029 -0.0353552 0)
(-0.134467 -0.050023 0)
(-0.12069 -0.0598312 0)
(-0.104693 -0.0632409 0)
(-0.0873846 -0.0589604 0)
(-0.0689109 -0.0463663 0)
(-0.0477537 -0.0262404 0)
(-0.0179026 -0.003377 0)
(-0.00925214 0.0262672 0)
(-0.0275835 0.0637748 0)
(-0.0470416 0.0890318 0)
(-0.0684872 0.103068 0)
(-0.0906806 0.107023 0)
(-0.112035 0.1023 0)
(-0.131056 0.0904192 0)
(-0.146741 0.0729917 0)
(-0.158384 0.0515047 0)
(-0.165419 0.0273824 0)
(-0.167672 0.00209468 0)
(-0.165174 -0.022801 0)
(-0.157976 -0.0456683 0)
(-0.146301 -0.064775 0)
(-0.130707 -0.0782689 0)
(-0.112014 -0.0842597 0)
(-0.0911282 -0.0810764 0)
(-0.0686261 -0.0677466 0)
(-0.04438 -0.0447939 0)
(-0.015794 -0.0151834 0)
(-0.0106491 0.0338271 0)
(-0.0315807 0.0806608 0)
(-0.0532508 0.111137 0)
(-0.0764815 0.127218 0)
(-0.0999466 0.130811 0)
(-0.122113 0.124002 0)
(-0.141544 0.10881 0)
(-0.157347 0.0872132 0)
(-0.168988 0.0610134 0)
(-0.175999 0.031851 0)
(-0.178208 0.0013204 0)
(-0.175603 -0.0289037 0)
(-0.16817 -0.0570184 0)
(-0.155998 -0.0810708 0)
(-0.139433 -0.098916 0)
(-0.119087 -0.108252 0)
(-0.0958158 -0.106844 0)
(-0.070542 -0.092921 0)
(-0.0440862 -0.0659078 0)
(-0.0152724 -0.0263944 0)
(-0.0120514 0.0422965 0)
(-0.0355532 0.0991629 0)
(-0.0592323 0.134877 0)
(-0.0838026 0.152627 0)
(-0.107852 0.155296 0)
(-0.129996 0.145848 0)
(-0.148999 0.126945 0)
(-0.164156 0.10096 0)
(-0.175158 0.0699899 0)
(-0.181734 0.0358609 0)
(-0.183794 0.000234776 0)
(-0.181312 -0.0352017 0)
(-0.174203 -0.0685991 0)
(-0.162404 -0.0978563 0)
(-0.146008 -0.120531 0)
(-0.125334 -0.133812 0)
(-0.101007 -0.134678 0)
(-0.0740323 -0.120237 0)
(-0.0457384 -0.0884136 0)
(-0.0156586 -0.0375515 0)
(-0.0133961 0.0515951 0)
(-0.0393117 0.118931 0)
(-0.0646126 0.159605 0)
(-0.0898315 0.178421 0)
(-0.113491 0.179487 0)
(-0.134438 0.166825 0)
(-0.151826 0.143893 0)
(-0.165277 0.113501 0)
(-0.174779 0.0779978 0)
(-0.180344 0.0393131 0)
(-0.182065 -0.000909572 0)
(-0.179957 -0.0410769 0)
(-0.173858 -0.0794187 0)
(-0.163513 -0.113791 0)
(-0.148675 -0.1415 0)
(-0.129225 -0.15918 0)
(-0.105349 -0.162866 0)
(-0.0778172 -0.148309 0)
(-0.0481402 -0.111658 0)
(-0.0164094 -0.0489546 0)
(-0.0145269 0.0615654 0)
(-0.0424184 0.139436 0)
(-0.0686335 0.184426 0)
(-0.0934242 0.203426 0)
(-0.115332 0.202091 0)
(-0.133531 0.185663 0)
(-0.147741 0.158504 0)
(-0.158104 0.123912 0)
(-0.165006 0.0844243 0)
(-0.168825 0.0419609 0)
(-0.169912 -0.00196743 0)
(-0.168383 -0.0459665 0)
(-0.164019 -0.0884596 0)
(-0.156332 -0.127385 0)
(-0.144644 -0.159908 0)
(-0.128234 -0.182189 0)
(-0.106618 -0.189302 0)
(-0.0800457 -0.175481 0)
(-0.0499445 -0.13479 0)
(-0.0170073 -0.0605967 0)
(-0.0151021 0.0719234 0)
(-0.0439646 0.159841 0)
(-0.069893 0.208028 0)
(-0.0926535 0.225986 0)
(-0.110958 0.221316 0)
(-0.124458 0.200662 0)
(-0.133598 0.169306 0)
(-0.139215 0.131038 0)
(-0.142226 0.0885013 0)
(-0.143436 0.0434615 0)
(-0.143486 -0.0028354 0)
(-0.142635 -0.0492941 0)
(-0.140637 -0.0946267 0)
(-0.136776 -0.136984 0)
(-0.129917 -0.173572 0)
(-0.118633 -0.200292 0)
(-0.101566 -0.211429 0)
(-0.0781341 -0.199654 0)
(-0.0494364 -0.156576 0)
(-0.0168377 -0.0721729 0)
(-0.0144626 0.0821346 0)
(-0.0422281 0.178704 0)
(-0.0659014 0.228353 0)
(-0.0843556 0.243725 0)
(-0.0966242 0.234776 0)
(-0.103087 0.209712 0)
(-0.105046 0.17463 0)
(-0.104144 0.133688 0)
(-0.101931 0.0895034 0)
(-0.0996644 0.0435584 0)
(-0.09824 -0.00328409 0)
(-0.0980418 -0.0503152 0)
(-0.0988366 -0.0966196 0)
(-0.099758 -0.140703 0)
(-0.0993063 -0.180051 0)
(-0.095384 -0.210626 0)
(-0.0856426 -0.226261 0)
(-0.0683839 -0.218198 0)
(-0.0440945 -0.175249 0)
(-0.014969 -0.0830179 0)
(-0.0113978 0.0911974 0)
(-0.0340667 0.193601 0)
(-0.0522344 0.24225 0)
(-0.0632297 0.253409 0)
(-0.0664655 0.239578 0)
(-0.0633296 0.210488 0)
(-0.0560974 0.17282 0)
(-0.0471643 0.130775 0)
(-0.0386712 0.0867661 0)
(-0.0322628 0.0419366 0)
(-0.0290043 -0.0032501 0)
(-0.0293441 -0.0485093 0)
(-0.0330928 -0.09338 0)
(-0.0393767 -0.13688 0)
(-0.0465443 -0.177043 0)
(-0.0520392 -0.210275 0)
(-0.0526031 -0.23043 0)
(-0.0452959 -0.227737 0)
(-0.0298261 -0.188147 0)
(-0.00978189 -0.0918937 0)
(-0.003599 0.0973609 0)
(-0.013685 0.200799 0)
(-0.0210271 0.245282 0)
(-0.0203999 0.250931 0)
(-0.0114175 0.232462 0)
(0.00352089 0.200556 0)
(0.0212247 0.162156 0)
(0.0387818 0.121199 0)
(0.0537951 0.0796553 0)
(0.0644728 0.0382706 0)
(0.0697069 -0.00283922 0)
(0.0690243 -0.0437635 0)
(0.0625173 -0.084507 0)
(0.0508954 -0.124689 0)
(0.0356815 -0.16308 0)
(0.0195259 -0.19687 0)
(0.00621225 -0.220545 0)
(-0.000397611 -0.224211 0)
(0.000346071 -0.191593 0)
(0.0017256 -0.0969353 0)
(0.0137801 0.0978229 0)
(0.0298885 0.195057 0)
(0.0414158 0.231721 0)
(0.058401 0.231424 0)
(0.0818593 0.209986 0)
(0.109168 0.177945 0)
(0.136946 0.141697 0)
(0.162166 0.104621 0)
(0.182555 0.0681542 0)
(0.196562 0.0326551 0)
(0.203288 -0.00202409 0)
(0.202321 -0.0362346 0)
(0.193619 -0.0703422 0)
(0.177584 -0.10448 0)
(0.155338 -0.138123 0)
(0.129148 -0.169421 0)
(0.102542 -0.194134 0)
(0.0792518 -0.203658 0)
(0.0585587 -0.181302 0)
(0.0256332 -0.095654 0)
(0.0525223 0.0885724 0)
(0.118063 0.169932 0)
(0.158146 0.195464 0)
(0.19466 0.190618 0)
(0.231965 0.169781 0)
(0.268824 0.141769 0)
(0.302888 0.11152 0)
(0.331966 0.0815331 0)
(0.354451 0.0527762 0)
(0.369358 0.0253831 0)
(0.376189 -0.00090991 0)
(0.374689 -0.026565 0)
(0.36472 -0.0521142 0)
(0.346368 -0.0779492 0)
(0.320222 -0.10399 0)
(0.287725 -0.129244 0)
(0.251192 -0.151125 0)
(0.212623 -0.163718 0)
(0.166609 -0.152999 0)
(0.0763732 -0.0846646 0)
(0.148283 0.065839 0)
(0.294757 0.121015 0)
(0.366559 0.134066 0)
(0.417562 0.128129 0)
(0.460436 0.112747 0)
(0.497874 0.0933399 0)
(0.529779 0.0729309 0)
(0.555461 0.0530455 0)
(0.574347 0.0342808 0)
(0.586171 0.0167076 0)
(0.590877 0.000106143 0)
(0.588406 -0.0159194 0)
(0.578615 -0.0318312 0)
(0.561419 -0.0479786 0)
(0.536973 -0.0644058 0)
(0.505808 -0.080701 0)
(0.468662 -0.0957099 0)
(0.425161 -0.106551 0)
(0.363212 -0.105124 0)
(0.19416 -0.0614144 0)
(0.438285 0.0239219 0)
(0.653915 0.0436351 0)
(0.722359 0.0478272 0)
(0.759556 0.0455548 0)
(0.785791 0.0400914 0)
(0.806272 0.0332215 0)
(0.822357 0.0259856 0)
(0.834397 0.0189369 0)
(0.84254 0.0123131 0)
(0.846948 0.00615995 0)
(0.847765 0.000402527 0)
(0.845027 -0.00511199 0)
(0.83866 -0.0105611 0)
(0.828584 -0.0160703 0)
(0.814752 -0.0216564 0)
(0.797166 -0.0272129 0)
(0.775876 -0.0324344 0)
(0.75041 -0.0365375 0)
(0.711799 -0.0372659 0)
(0.509061 -0.0228256 0)
)
;

boundaryField
{
    movingWall
    {
        type            fixedValue;
        value           uniform (1 0 0);
    }
    fixedWalls
    {
        type            noSlip;
    }
    frontAndBack
    {
        type            empty;
    }
}


// ************************************************************************* //
