/*--------------------------------*- C++ -*----------------------------------*\
| =========                 |                                                 |
| \\      /  F ield         | OpenFOAM: The Open Source CFD Toolbox           |
|  \\    /   O peration     | Version:  v2012                                 |
|   \\  /    A nd           | Website:  www.openfoam.com                      |
|    \\/     M anipulation  |                                                 |
\*---------------------------------------------------------------------------*/
FoamFile
{
    version     2.0;
    format      ascii;
    class       volVectorField;
    location    "4";
    object      U;
}
// * * * * * * * * * * * * * * * * * * * * * * * * * * * * * * * * * * * * * //

dimensions      [0 1 -1 0 0 0 0];


internalField   nonuniform List<vector> 
400
(
(-8.44726e-12 -8.44726e-12 0)
(-4.52367e-13 -8.93111e-12 0)
(-4.65686e-13 -9.43945e-12 0)
(-4.68463e-13 -9.96397e-12 0)
(-4.56174e-13 -1.04912e-11 0)
(-4.24104e-13 -1.10015e-11 0)
(-3.68384e-13 -1.14686e-11 0)
(-2.87439e-13 -1.18612e-11 0)
(-1.83464e-13 -1.21467e-11 0)
(-6.31349e-14 -1.22976e-11 0)
(6.31349e-14 -1.22976e-11 0)
(1.83464e-13 -1.21467e-11 0)
(2.87439e-13 -1.18612e-11 0)
(3.68384e-13 -1.14686e-11 0)
(4.24104e-13 -1.10015e-11 0)
(4.56174e-13 -1.04912e-11 0)
(4.68463e-13 -9.96397e-12 0)
(4.65686e-13 -9.43945e-12 0)
(4.52367e-13 -8.93111e-12 0)
(8.44726e-12 -8.44726e-12 0)
(-8.93111e-12 -4.52367e-13 0)
(-5.39825e-13 -5.39825e-13 0)
(-5.67179e-13 -6.44361e-13 0)
(-5.83309e-13 -7.6716e-13 0)
(-5.81344e-13 -9.07456e-13 0)
(-5.53248e-13 -1.061e-12 0)
(-4.91295e-13 -1.21844e-12 0)
(-3.90718e-13 -1.36445e-12 0)
(-2.52929e-13 -1.47911e-12 0)
(-8.76976e-14 -1.54273e-12 0)
(8.76976e-14 -1.54273e-12 0)
(2.52929e-13 -1.47911e-12 0)
(3.90718e-13 -1.36445e-12 0)
(4.91295e-13 -1.21844e-12 0)
(5.53248e-13 -1.061e-12 0)
(5.81344e-13 -9.07456e-13 0)
(5.83309e-13 -7.6716e-13 0)
(5.67179e-13 -6.44361e-13 0)
(5.39825e-13 -5.39825e-13 0)
(8.93111e-12 -4.52367e-13 0)
(-9.43945e-12 -4.65686e-13 0)
(-6.44361e-13 -5.67179e-13 0)
(-6.93021e-13 -6.93021e-13 0)
(-7.31558e-13 -8.47153e-13 0)
(-7.50018e-13 -1.03166e-12 0)
(-7.35094e-13 -1.24412e-12 0)
(-6.71825e-13 -1.47372e-12 0)
(-5.48108e-13 -1.6977e-12 0)
(-3.61747e-13 -1.88139e-12 0)
(-1.2675e-13 -1.98635e-12 0)
(1.2675e-13 -1.98635e-12 0)
(3.61747e-13 -1.88139e-12 0)
(5.48108e-13 -1.6977e-12 0)
(6.71825e-13 -1.47372e-12 0)
(7.35094e-13 -1.24412e-12 0)
(7.50018e-13 -1.03166e-12 0)
(7.31558e-13 -8.47153e-13 0)
(6.93021e-13 -6.93021e-13 0)
(6.44361e-13 -5.67179e-13 0)
(9.43945e-12 -4.65686e-13 0)
(-9.96397e-12 -4.68463e-13 0)
(-7.6716e-13 -5.83309e-13 0)
(-8.47153e-13 -7.31558e-13 0)
(-9.21951e-13 -9.21951e-13 0)
(-9.78308e-13 -1.16279e-12 0)
(-9.95304e-13 -1.45801e-12 0)
(-9.44883e-13 -1.79956e-12 0)
(-7.98388e-13 -2.15659e-12 0)
(-5.41571e-13 -2.46809e-12 0)
(-1.92654e-13 -2.65407e-12 0)
(1.92654e-13 -2.65407e-12 0)
(5.41571e-13 -2.46809e-12 0)
(7.98388e-13 -2.15659e-12 0)
(9.44883e-13 -1.79956e-12 0)
(9.95304e-13 -1.45801e-12 0)
(9.78308e-13 -1.16279e-12 0)
(9.21951e-13 -9.21951e-13 0)
(8.47153e-13 -7.31558e-13 0)
(7.6716e-13 -5.83309e-13 0)
(9.96397e-12 -4.68463e-13 0)
(-1.04912e-11 -4.56174e-13 0)
(-9.07456e-13 -5.81344e-13 0)
(-1.03166e-12 -7.50018e-13 0)
(-1.16279e-12 -9.78308e-13 0)
(-1.28608e-12 -1.28608e-12 0)
(-1.37187e-12 -1.69321e-12 0)
(-1.37041e-12 -2.20767e-12 0)
(-1.21663e-12 -2.79951e-12 0)
(-8.59227e-13 -3.36568e-12 0)
(-3.12735e-13 -3.72803e-12 0)
(3.12735e-13 -3.72803e-12 0)
(8.59227e-13 -3.36568e-12 0)
(1.21663e-12 -2.79951e-12 0)
(1.37041e-12 -2.20767e-12 0)
(1.37187e-12 -1.69321e-12 0)
(1.28608e-12 -1.28608e-12 0)
(1.16279e-12 -9.78308e-13 0)
(1.03166e-12 -7.50018e-13 0)
(9.07456e-13 -5.81344e-13 0)
(1.04912e-11 -4.56174e-13 0)
(-1.10015e-11 -4.24104e-13 0)
(-1.061e-12 -5.53248e-13 0)
(-1.24412e-12 -7.35094e-13 0)
(-1.45801e-12 -9.95304e-13 0)
(-1.69321e-12 -1.37187e-12 0)
(-1.9169e-12 -1.9169e-12 0)
(-2.05118e-12 -2.68745e-12 0)
(-1.9564e-12 -3.70063e-12 0)
(-1.4701e-12 -4.81827e-12 0)
(-5.55007e-13 -5.62333e-12 0)
(5.55007e-13 -5.62333e-12 0)
(1.4701e-12 -4.81827e-12 0)
(1.9564e-12 -3.70063e-12 0)
(2.05118e-12 -2.68745e-12 0)
(1.9169e-12 -1.9169e-12 0)
(1.69321e-12 -1.37187e-12 0)
(1.45801e-12 -9.95304e-13 0)
(1.24412e-12 -7.35094e-13 0)
(1.061e-12 -5.53248e-13 0)
(1.10015e-11 -4.24104e-13 0)
(-1.14686e-11 -3.68384e-13 0)
(-1.21844e-12 -4.91295e-13 0)
(-1.47372e-12 -6.71825e-13 0)
(-1.79956e-12 -9.44883e-13 0)
(-2.20767e-12 -1.37041e-12 0)
(-2.68745e-12 -2.05118e-12 0)
(-3.15414e-12 -3.15414e-12 0)
(-3.34746e-12 -4.89476e-12 0)
(-2.78193e-12 -7.30348e-12 0)
(-1.11779e-12 -9.46894e-12 0)
(1.11779e-12 -9.46894e-12 0)
(2.78193e-12 -7.30348e-12 0)
(3.34746e-12 -4.89476e-12 0)
(3.15414e-12 -3.15414e-12 0)
(2.68745e-12 -2.05118e-12 0)
(2.20767e-12 -1.37041e-12 0)
(1.79956e-12 -9.44883e-13 0)
(1.47372e-12 -6.71825e-13 0)
(1.21844e-12 -4.91295e-13 0)
(1.14686e-11 -3.68384e-13 0)
(-1.18612e-11 -2.87439e-13 0)
(-1.36445e-12 -3.90718e-13 0)
(-1.6977e-12 -5.48108e-13 0)
(-2.15659e-12 -7.98388e-13 0)
(-2.79951e-12 -1.21663e-12 0)
(-3.70063e-12 -1.9564e-12 0)
(-4.89476e-12 -3.34746e-12 0)
(-6.10574e-12 -6.10574e-12 0)
(-6.04428e-12 -1.15367e-11 0)
(-2.72047e-12 -1.93177e-11 0)
(2.72047e-12 -1.93177e-11 0)
(6.04428e-12 -1.15367e-11 0)
(6.10574e-12 -6.10574e-12 0)
(4.89476e-12 -3.34746e-12 0)
(3.70063e-12 -1.9564e-12 0)
(2.79951e-12 -1.21663e-12 0)
(2.15659e-12 -7.98388e-13 0)
(1.6977e-12 -5.48108e-13 0)
(1.36445e-12 -3.90718e-13 0)
(1.18612e-11 -2.87439e-13 0)
(-1.21467e-11 -1.83464e-13 0)
(-1.47911e-12 -2.52929e-13 0)
(-1.88139e-12 -3.61747e-13 0)
(-2.46809e-12 -5.41571e-13 0)
(-3.36568e-12 -8.59227e-13 0)
(-4.81827e-12 -1.4701e-12 0)
(-7.30348e-12 -2.78193e-12 0)
(-1.15367e-11 -6.04428e-12 0)
(-1.59939e-11 -1.59939e-11 0)
(-8.89881e-12 -5.64692e-11 0)
(8.89881e-12 -5.64692e-11 0)
(1.59939e-11 -1.59939e-11 0)
(1.15367e-11 -6.04428e-12 0)
(7.30348e-12 -2.78193e-12 0)
(4.81827e-12 -1.4701e-12 0)
(3.36568e-12 -8.59227e-13 0)
(2.46809e-12 -5.41571e-13 0)
(1.88139e-12 -3.61747e-13 0)
(1.47911e-12 -2.52929e-13 0)
(1.21467e-11 -1.83464e-13 0)
(-1.22976e-11 -6.31349e-14 0)
(-1.54273e-12 -8.76976e-14 0)
(-1.98635e-12 -1.2675e-13 0)
(-2.65407e-12 -1.92654e-13 0)
(-3.72803e-12 -3.12735e-13 0)
(-5.62333e-12 -5.55007e-13 0)
(-9.46894e-12 -1.11779e-12 0)
(-1.93177e-11 -2.72047e-12 0)
(-5.64692e-11 -8.89881e-12 0)
(-4.31957e-11 -4.31957e-11 0)
(4.31957e-11 -4.31957e-11 0)
(5.64692e-11 -8.89881e-12 0)
(1.93177e-11 -2.72047e-12 0)
(9.46894e-12 -1.11779e-12 0)
(5.62333e-12 -5.55007e-13 0)
(3.72803e-12 -3.12735e-13 0)
(2.65407e-12 -1.92654e-13 0)
(1.98635e-12 -1.2675e-13 0)
(1.54273e-12 -8.76976e-14 0)
(1.22976e-11 -6.31349e-14 0)
(-1.22976e-11 6.31349e-14 0)
(-1.54273e-12 8.76976e-14 0)
(-1.98635e-12 1.2675e-13 0)
(-2.65407e-12 1.92654e-13 0)
(-3.72803e-12 3.12735e-13 0)
(-5.62333e-12 5.55007e-13 0)
(-9.46894e-12 1.11779e-12 0)
(-1.93177e-11 2.72047e-12 0)
(-5.64692e-11 8.89881e-12 0)
(-4.31957e-11 4.31957e-11 0)
(4.31957e-11 4.31957e-11 0)
(5.64692e-11 8.89881e-12 0)
(1.93177e-11 2.72047e-12 0)
(9.46894e-12 1.11779e-12 0)
(5.62333e-12 5.55007e-13 0)
(3.72803e-12 3.12735e-13 0)
(2.65407e-12 1.92654e-13 0)
(1.98635e-12 1.2675e-13 0)
(1.54273e-12 8.76976e-14 0)
(1.22976e-11 6.31349e-14 0)
(-1.21467e-11 1.83464e-13 0)
(-1.47911e-12 2.52929e-13 0)
(-1.88139e-12 3.61747e-13 0)
(-2.46809e-12 5.41571e-13 0)
(-3.36568e-12 8.59227e-13 0)
(-4.81827e-12 1.4701e-12 0)
(-7.30348e-12 2.78193e-12 0)
(-1.15367e-11 6.04428e-12 0)
(-1.59939e-11 1.59939e-11 0)
(-8.89881e-12 5.64692e-11 0)
(8.89881e-12 5.64692e-11 0)
(1.59939e-11 1.59939e-11 0)
(1.15367e-11 6.04428e-12 0)
(7.30348e-12 2.78193e-12 0)
(4.81827e-12 1.4701e-12 0)
(3.36568e-12 8.59227e-13 0)
(2.46809e-12 5.41571e-13 0)
(1.88139e-12 3.61747e-13 0)
(1.47911e-12 2.52929e-13 0)
(1.21467e-11 1.83464e-13 0)
(-1.18612e-11 2.87439e-13 0)
(-1.36445e-12 3.90718e-13 0)
(-1.6977e-12 5.48108e-13 0)
(-2.15659e-12 7.98388e-13 0)
(-2.79951e-12 1.21663e-12 0)
(-3.70063e-12 1.9564e-12 0)
(-4.89476e-12 3.34746e-12 0)
(-6.10574e-12 6.10574e-12 0)
(-6.04428e-12 1.15367e-11 0)
(-2.72047e-12 1.93177e-11 0)
(2.72047e-12 1.93177e-11 0)
(6.04428e-12 1.15367e-11 0)
(6.10574e-12 6.10574e-12 0)
(4.89476e-12 3.34746e-12 0)
(3.70063e-12 1.9564e-12 0)
(2.79951e-12 1.21663e-12 0)
(2.15659e-12 7.98388e-13 0)
(1.6977e-12 5.48108e-13 0)
(1.36445e-12 3.90718e-13 0)
(1.18612e-11 2.87439e-13 0)
(-1.14686e-11 3.68384e-13 0)
(-1.21844e-12 4.91295e-13 0)
(-1.47372e-12 6.71825e-13 0)
(-1.79956e-12 9.44883e-13 0)
(-2.20767e-12 1.37041e-12 0)
(-2.68745e-12 2.05118e-12 0)
(-3.15414e-12 3.15414e-12 0)
(-3.34746e-12 4.89476e-12 0)
(-2.78193e-12 7.30348e-12 0)
(-1.11779e-12 9.46894e-12 0)
(1.11779e-12 9.46894e-12 0)
(2.78193e-12 7.30348e-12 0)
(3.34746e-12 4.89476e-12 0)
(3.15414e-12 3.15414e-12 0)
(2.68745e-12 2.05118e-12 0)
(2.20767e-12 1.37041e-12 0)
(1.79956e-12 9.44883e-13 0)
(1.47372e-12 6.71825e-13 0)
(1.21844e-12 4.91295e-13 0)
(1.14686e-11 3.68384e-13 0)
(-1.10015e-11 4.24104e-13 0)
(-1.061e-12 5.53248e-13 0)
(-1.24412e-12 7.35094e-13 0)
(-1.45801e-12 9.95304e-13 0)
(-1.69321e-12 1.37187e-12 0)
(-1.9169e-12 1.9169e-12 0)
(-2.05118e-12 2.68745e-12 0)
(-1.9564e-12 3.70063e-12 0)
(-1.4701e-12 4.81827e-12 0)
(-5.55007e-13 5.62333e-12 0)
(5.55007e-13 5.62333e-12 0)
(1.4701e-12 4.81827e-12 0)
(1.9564e-12 3.70063e-12 0)
(2.05118e-12 2.68745e-12 0)
(1.9169e-12 1.9169e-12 0)
(1.69321e-12 1.37187e-12 0)
(1.45801e-12 9.95304e-13 0)
(1.24412e-12 7.35094e-13 0)
(1.061e-12 5.53248e-13 0)
(1.10015e-11 4.24104e-13 0)
(-1.04912e-11 4.56174e-13 0)
(-9.07456e-13 5.81344e-13 0)
(-1.03166e-12 7.50018e-13 0)
(-1.16279e-12 9.78308e-13 0)
(-1.28608e-12 1.28608e-12 0)
(-1.37187e-12 1.69321e-12 0)
(-1.37041e-12 2.20767e-12 0)
(-1.21663e-12 2.79951e-12 0)
(-8.59227e-13 3.36568e-12 0)
(-3.12735e-13 3.72803e-12 0)
(3.12735e-13 3.72803e-12 0)
(8.59227e-13 3.36568e-12 0)
(1.21663e-12 2.79951e-12 0)
(1.37041e-12 2.20767e-12 0)
(1.37187e-12 1.69321e-12 0)
(1.28608e-12 1.28608e-12 0)
(1.16279e-12 9.78308e-13 0)
(1.03166e-12 7.50018e-13 0)
(9.07456e-13 5.81344e-13 0)
(1.04912e-11 4.56174e-13 0)
(-9.96397e-12 4.68463e-13 0)
(-7.6716e-13 5.83309e-13 0)
(-8.47153e-13 7.31558e-13 0)
(-9.21951e-13 9.21951e-13 0)
(-9.78308e-13 1.16279e-12 0)
(-9.95304e-13 1.45801e-12 0)
(-9.44883e-13 1.79956e-12 0)
(-7.98388e-13 2.15659e-12 0)
(-5.41571e-13 2.46809e-12 0)
(-1.92654e-13 2.65407e-12 0)
(1.92654e-13 2.65407e-12 0)
(5.41571e-13 2.46809e-12 0)
(7.98388e-13 2.15659e-12 0)
(9.44883e-13 1.79956e-12 0)
(9.95304e-13 1.45801e-12 0)
(9.78308e-13 1.16279e-12 0)
(9.21951e-13 9.21951e-13 0)
(8.47153e-13 7.31558e-13 0)
(7.6716e-13 5.83309e-13 0)
(9.96397e-12 4.68463e-13 0)
(-9.43945e-12 4.65686e-13 0)
(-6.44361e-13 5.67179e-13 0)
(-6.93021e-13 6.93021e-13 0)
(-7.31558e-13 8.47153e-13 0)
(-7.50018e-13 1.03166e-12 0)
(-7.35094e-13 1.24412e-12 0)
(-6.71825e-13 1.47372e-12 0)
(-5.48108e-13 1.6977e-12 0)
(-3.61747e-13 1.88139e-12 0)
(-1.2675e-13 1.98635e-12 0)
(1.2675e-13 1.98635e-12 0)
(3.61747e-13 1.88139e-12 0)
(5.48108e-13 1.6977e-12 0)
(6.71825e-13 1.47372e-12 0)
(7.35094e-13 1.24412e-12 0)
(7.50018e-13 1.03166e-12 0)
(7.31558e-13 8.47153e-13 0)
(6.93021e-13 6.93021e-13 0)
(6.44361e-13 5.67179e-13 0)
(9.43945e-12 4.65686e-13 0)
(-8.93111e-12 4.52367e-13 0)
(-5.39825e-13 5.39825e-13 0)
(-5.67179e-13 6.44361e-13 0)
(-5.83309e-13 7.6716e-13 0)
(-5.81344e-13 9.07456e-13 0)
(-5.53248e-13 1.061e-12 0)
(-4.91295e-13 1.21844e-12 0)
(-3.90718e-13 1.36445e-12 0)
(-2.52929e-13 1.47911e-12 0)
(-8.76976e-14 1.54273e-12 0)
(8.76976e-14 1.54273e-12 0)
(2.52929e-13 1.47911e-12 0)
(3.90718e-13 1.36445e-12 0)
(4.91295e-13 1.21844e-12 0)
(5.53248e-13 1.061e-12 0)
(5.81344e-13 9.07456e-13 0)
(5.83309e-13 7.6716e-13 0)
(5.67179e-13 6.44361e-13 0)
(5.39825e-13 5.39825e-13 0)
(8.93111e-12 4.52367e-13 0)
(-8.44726e-12 8.44726e-12 0)
(-4.52367e-13 8.93111e-12 0)
(-4.65686e-13 9.43945e-12 0)
(-4.68463e-13 9.96397e-12 0)
(-4.56174e-13 1.04912e-11 0)
(-4.24104e-13 1.10015e-11 0)
(-3.68384e-13 1.14686e-11 0)
(-2.87439e-13 1.18612e-11 0)
(-1.83464e-13 1.21467e-11 0)
(-6.31349e-14 1.22976e-11 0)
(6.31349e-14 1.22976e-11 0)
(1.83464e-13 1.21467e-11 0)
(2.87439e-13 1.18612e-11 0)
(3.68384e-13 1.14686e-11 0)
(4.24104e-13 1.10015e-11 0)
(4.56174e-13 1.04912e-11 0)
(4.68463e-13 9.96397e-12 0)
(4.65686e-13 9.43945e-12 0)
(4.52367e-13 8.93111e-12 0)
(8.44726e-12 8.44726e-12 0)
)
;

boundaryField
{
    movingWall
    {
        type            fixedValue;
        value           uniform (1 0 0);
    }
    fixedWalls
    {
        type            fixedValue;
        value           uniform (0 0 0);
    }
    frontAndBack
    {
        type            empty;
    }
}


// ************************************************************************* //
