/*--------------------------------*- C++ -*----------------------------------*\
| =========                 |                                                 |
| \\      /  F ield         | OpenFOAM: The Open Source CFD Toolbox           |
|  \\    /   O peration     | Version:  v2012                                 |
|   \\  /    A nd           | Website:  www.openfoam.com                      |
|    \\/     M anipulation  |                                                 |
\*---------------------------------------------------------------------------*/
FoamFile
{
    version     2.0;
    format      ascii;
    class       volVectorField;
    location    "7.5";
    object      U;
}
// * * * * * * * * * * * * * * * * * * * * * * * * * * * * * * * * * * * * * //

dimensions      [0 1 -1 0 0 0 0];


internalField   nonuniform List<vector> 
400
(
(2.51094e-11 2.51094e-11 0)
(1.34465e-12 2.65476e-11 0)
(1.38424e-12 2.80586e-11 0)
(1.3925e-12 2.96178e-11 0)
(1.35597e-12 3.1185e-11 0)
(1.26064e-12 3.27018e-11 0)
(1.09502e-12 3.40902e-11 0)
(8.5441e-13 3.52572e-11 0)
(5.45346e-13 3.6106e-11 0)
(1.87668e-13 3.65543e-11 0)
(-1.87668e-13 3.65543e-11 0)
(-5.45346e-13 3.6106e-11 0)
(-8.5441e-13 3.52572e-11 0)
(-1.09502e-12 3.40902e-11 0)
(-1.26064e-12 3.27018e-11 0)
(-1.35597e-12 3.1185e-11 0)
(-1.3925e-12 2.96178e-11 0)
(-1.38424e-12 2.80586e-11 0)
(-1.34465e-12 2.65476e-11 0)
(-2.51094e-11 2.51094e-11 0)
(2.65476e-11 1.34465e-12 0)
(1.60462e-12 1.60462e-12 0)
(1.68593e-12 1.91535e-12 0)
(1.73388e-12 2.28037e-12 0)
(1.72804e-12 2.6974e-12 0)
(1.64452e-12 3.15382e-12 0)
(1.46037e-12 3.62181e-12 0)
(1.1614e-12 4.0558e-12 0)
(7.51827e-13 4.39664e-12 0)
(2.6068e-13 4.58574e-12 0)
(-2.6068e-13 4.58574e-12 0)
(-7.51827e-13 4.39664e-12 0)
(-1.1614e-12 4.0558e-12 0)
(-1.46037e-12 3.62181e-12 0)
(-1.64452e-12 3.15382e-12 0)
(-1.72804e-12 2.6974e-12 0)
(-1.73388e-12 2.28037e-12 0)
(-1.68593e-12 1.91535e-12 0)
(-1.60462e-12 1.60462e-12 0)
(-2.65476e-11 1.34465e-12 0)
(2.80586e-11 1.38424e-12 0)
(1.91535e-12 1.68593e-12 0)
(2.06e-12 2.06e-12 0)
(2.17455e-12 2.51815e-12 0)
(2.22942e-12 3.06661e-12 0)
(2.18506e-12 3.69812e-12 0)
(1.99699e-12 4.38061e-12 0)
(1.62924e-12 5.0464e-12 0)
(1.07529e-12 5.5924e-12 0)
(3.76763e-13 5.90439e-12 0)
(-3.76763e-13 5.90439e-12 0)
(-1.07529e-12 5.5924e-12 0)
(-1.62924e-12 5.0464e-12 0)
(-1.99699e-12 4.38061e-12 0)
(-2.18506e-12 3.69812e-12 0)
(-2.22942e-12 3.06661e-12 0)
(-2.17455e-12 2.51815e-12 0)
(-2.06e-12 2.06e-12 0)
(-1.91535e-12 1.68593e-12 0)
(-2.80586e-11 1.38424e-12 0)
(2.96178e-11 1.3925e-12 0)
(2.28037e-12 1.73388e-12 0)
(2.51815e-12 2.17455e-12 0)
(2.74049e-12 2.74049e-12 0)
(2.90801e-12 3.45638e-12 0)
(2.95853e-12 4.33392e-12 0)
(2.80865e-12 5.34918e-12 0)
(2.3732e-12 6.41044e-12 0)
(1.60981e-12 7.33635e-12 0)
(5.72662e-13 7.88919e-12 0)
(-5.72662e-13 7.88919e-12 0)
(-1.60981e-12 7.33635e-12 0)
(-2.3732e-12 6.41044e-12 0)
(-2.80865e-12 5.34918e-12 0)
(-2.95853e-12 4.33392e-12 0)
(-2.90801e-12 3.45638e-12 0)
(-2.74049e-12 2.74049e-12 0)
(-2.51815e-12 2.17455e-12 0)
(-2.28037e-12 1.73388e-12 0)
(-2.96178e-11 1.3925e-12 0)
(3.1185e-11 1.35597e-12 0)
(2.6974e-12 1.72804e-12 0)
(3.06661e-12 2.22942e-12 0)
(3.45638e-12 2.90801e-12 0)
(3.82285e-12 3.82285e-12 0)
(4.07786e-12 5.03304e-12 0)
(4.07352e-12 6.56227e-12 0)
(3.61642e-12 8.32149e-12 0)
(2.55404e-12 1.00044e-11 0)
(9.296e-13 1.10815e-11 0)
(-9.296e-13 1.10815e-11 0)
(-2.55404e-12 1.00044e-11 0)
(-3.61642e-12 8.32149e-12 0)
(-4.07352e-12 6.56227e-12 0)
(-4.07786e-12 5.03304e-12 0)
(-3.82285e-12 3.82285e-12 0)
(-3.45638e-12 2.90801e-12 0)
(-3.06661e-12 2.22942e-12 0)
(-2.6974e-12 1.72804e-12 0)
(-3.1185e-11 1.35597e-12 0)
(3.27018e-11 1.26064e-12 0)
(3.15382e-12 1.64452e-12 0)
(3.69812e-12 2.18506e-12 0)
(4.33392e-12 2.95853e-12 0)
(5.03304e-12 4.07786e-12 0)
(5.69795e-12 5.69795e-12 0)
(6.09711e-12 7.9884e-12 0)
(5.81536e-12 1.10001e-11 0)
(4.36985e-12 1.43222e-11 0)
(1.64975e-12 1.67153e-11 0)
(-1.64975e-12 1.67153e-11 0)
(-4.36985e-12 1.43222e-11 0)
(-5.81536e-12 1.10001e-11 0)
(-6.09711e-12 7.9884e-12 0)
(-5.69795e-12 5.69795e-12 0)
(-5.03304e-12 4.07786e-12 0)
(-4.33392e-12 2.95853e-12 0)
(-3.69812e-12 2.18506e-12 0)
(-3.15382e-12 1.64452e-12 0)
(-3.27018e-11 1.26064e-12 0)
(3.40902e-11 1.09502e-12 0)
(3.62181e-12 1.46037e-12 0)
(4.38061e-12 1.99699e-12 0)
(5.34918e-12 2.80865e-12 0)
(6.56227e-12 4.07352e-12 0)
(7.9884e-12 6.09711e-12 0)
(9.37563e-12 9.37563e-12 0)
(9.95026e-12 1.45496e-11 0)
(8.26924e-12 2.17095e-11 0)
(3.32262e-12 2.81463e-11 0)
(-3.32262e-12 2.81463e-11 0)
(-8.26924e-12 2.17095e-11 0)
(-9.95026e-12 1.45496e-11 0)
(-9.37563e-12 9.37563e-12 0)
(-7.9884e-12 6.09711e-12 0)
(-6.56227e-12 4.07352e-12 0)
(-5.34918e-12 2.80865e-12 0)
(-4.38061e-12 1.99699e-12 0)
(-3.62181e-12 1.46037e-12 0)
(-3.40902e-11 1.09502e-12 0)
(3.52572e-11 8.5441e-13 0)
(4.0558e-12 1.1614e-12 0)
(5.0464e-12 1.62924e-12 0)
(6.41044e-12 2.3732e-12 0)
(8.32149e-12 3.61642e-12 0)
(1.10001e-11 5.81536e-12 0)
(1.45496e-11 9.95026e-12 0)
(1.81492e-11 1.81492e-11 0)
(1.79665e-11 3.42927e-11 0)
(8.08655e-12 5.74217e-11 0)
(-8.08655e-12 5.74217e-11 0)
(-1.79665e-11 3.42927e-11 0)
(-1.81492e-11 1.81492e-11 0)
(-1.45496e-11 9.95026e-12 0)
(-1.10001e-11 5.81536e-12 0)
(-8.32149e-12 3.61642e-12 0)
(-6.41044e-12 2.3732e-12 0)
(-5.0464e-12 1.62924e-12 0)
(-4.0558e-12 1.1614e-12 0)
(-3.52572e-11 8.5441e-13 0)
(3.6106e-11 5.45346e-13 0)
(4.39664e-12 7.51827e-13 0)
(5.5924e-12 1.07529e-12 0)
(7.33635e-12 1.60981e-12 0)
(1.00044e-11 2.55404e-12 0)
(1.43222e-11 4.36985e-12 0)
(2.17095e-11 8.26924e-12 0)
(3.42927e-11 1.79665e-11 0)
(4.75417e-11 4.75417e-11 0)
(2.64516e-11 1.67854e-10 0)
(-2.64516e-11 1.67854e-10 0)
(-4.75417e-11 4.75417e-11 0)
(-3.42927e-11 1.79665e-11 0)
(-2.17095e-11 8.26924e-12 0)
(-1.43222e-11 4.36985e-12 0)
(-1.00044e-11 2.55404e-12 0)
(-7.33635e-12 1.60981e-12 0)
(-5.5924e-12 1.07529e-12 0)
(-4.39664e-12 7.51827e-13 0)
(-3.6106e-11 5.45346e-13 0)
(3.65543e-11 1.87668e-13 0)
(4.58574e-12 2.6068e-13 0)
(5.90439e-12 3.76763e-13 0)
(7.88919e-12 5.72662e-13 0)
(1.10815e-11 9.296e-13 0)
(1.67153e-11 1.64975e-12 0)
(2.81463e-11 3.32262e-12 0)
(5.74217e-11 8.08655e-12 0)
(1.67854e-10 2.64516e-11 0)
(1.28399e-10 1.28399e-10 0)
(-1.28399e-10 1.28399e-10 0)
(-1.67854e-10 2.64516e-11 0)
(-5.74217e-11 8.08655e-12 0)
(-2.81463e-11 3.32262e-12 0)
(-1.67153e-11 1.64975e-12 0)
(-1.10815e-11 9.296e-13 0)
(-7.88919e-12 5.72662e-13 0)
(-5.90439e-12 3.76763e-13 0)
(-4.58574e-12 2.6068e-13 0)
(-3.65543e-11 1.87668e-13 0)
(3.65543e-11 -1.87668e-13 0)
(4.58574e-12 -2.6068e-13 0)
(5.90439e-12 -3.76763e-13 0)
(7.88919e-12 -5.72662e-13 0)
(1.10815e-11 -9.296e-13 0)
(1.67153e-11 -1.64975e-12 0)
(2.81463e-11 -3.32262e-12 0)
(5.74217e-11 -8.08655e-12 0)
(1.67854e-10 -2.64516e-11 0)
(1.28399e-10 -1.28399e-10 0)
(-1.28399e-10 -1.28399e-10 0)
(-1.67854e-10 -2.64516e-11 0)
(-5.74217e-11 -8.08655e-12 0)
(-2.81463e-11 -3.32262e-12 0)
(-1.67153e-11 -1.64975e-12 0)
(-1.10815e-11 -9.296e-13 0)
(-7.88919e-12 -5.72662e-13 0)
(-5.90439e-12 -3.76763e-13 0)
(-4.58574e-12 -2.6068e-13 0)
(-3.65543e-11 -1.87668e-13 0)
(3.6106e-11 -5.45346e-13 0)
(4.39664e-12 -7.51827e-13 0)
(5.5924e-12 -1.07529e-12 0)
(7.33635e-12 -1.60981e-12 0)
(1.00044e-11 -2.55404e-12 0)
(1.43222e-11 -4.36985e-12 0)
(2.17095e-11 -8.26924e-12 0)
(3.42927e-11 -1.79665e-11 0)
(4.75417e-11 -4.75417e-11 0)
(2.64516e-11 -1.67854e-10 0)
(-2.64516e-11 -1.67854e-10 0)
(-4.75417e-11 -4.75417e-11 0)
(-3.42927e-11 -1.79665e-11 0)
(-2.17095e-11 -8.26924e-12 0)
(-1.43222e-11 -4.36985e-12 0)
(-1.00044e-11 -2.55404e-12 0)
(-7.33635e-12 -1.60981e-12 0)
(-5.5924e-12 -1.07529e-12 0)
(-4.39664e-12 -7.51827e-13 0)
(-3.6106e-11 -5.45346e-13 0)
(3.52572e-11 -8.5441e-13 0)
(4.0558e-12 -1.1614e-12 0)
(5.0464e-12 -1.62924e-12 0)
(6.41044e-12 -2.3732e-12 0)
(8.32149e-12 -3.61642e-12 0)
(1.10001e-11 -5.81536e-12 0)
(1.45496e-11 -9.95026e-12 0)
(1.81492e-11 -1.81492e-11 0)
(1.79665e-11 -3.42927e-11 0)
(8.08655e-12 -5.74217e-11 0)
(-8.08655e-12 -5.74217e-11 0)
(-1.79665e-11 -3.42927e-11 0)
(-1.81492e-11 -1.81492e-11 0)
(-1.45496e-11 -9.95026e-12 0)
(-1.10001e-11 -5.81536e-12 0)
(-8.32149e-12 -3.61642e-12 0)
(-6.41044e-12 -2.3732e-12 0)
(-5.0464e-12 -1.62924e-12 0)
(-4.0558e-12 -1.1614e-12 0)
(-3.52572e-11 -8.5441e-13 0)
(3.40902e-11 -1.09502e-12 0)
(3.62181e-12 -1.46037e-12 0)
(4.38061e-12 -1.99699e-12 0)
(5.34918e-12 -2.80865e-12 0)
(6.56227e-12 -4.07352e-12 0)
(7.9884e-12 -6.09711e-12 0)
(9.37563e-12 -9.37563e-12 0)
(9.95026e-12 -1.45496e-11 0)
(8.26924e-12 -2.17095e-11 0)
(3.32262e-12 -2.81463e-11 0)
(-3.32262e-12 -2.81463e-11 0)
(-8.26924e-12 -2.17095e-11 0)
(-9.95026e-12 -1.45496e-11 0)
(-9.37563e-12 -9.37563e-12 0)
(-7.9884e-12 -6.09711e-12 0)
(-6.56227e-12 -4.07352e-12 0)
(-5.34918e-12 -2.80865e-12 0)
(-4.38061e-12 -1.99699e-12 0)
(-3.62181e-12 -1.46037e-12 0)
(-3.40902e-11 -1.09502e-12 0)
(3.27018e-11 -1.26064e-12 0)
(3.15382e-12 -1.64452e-12 0)
(3.69812e-12 -2.18506e-12 0)
(4.33392e-12 -2.95853e-12 0)
(5.03304e-12 -4.07786e-12 0)
(5.69795e-12 -5.69795e-12 0)
(6.09711e-12 -7.9884e-12 0)
(5.81536e-12 -1.10001e-11 0)
(4.36985e-12 -1.43222e-11 0)
(1.64975e-12 -1.67153e-11 0)
(-1.64975e-12 -1.67153e-11 0)
(-4.36985e-12 -1.43222e-11 0)
(-5.81536e-12 -1.10001e-11 0)
(-6.09711e-12 -7.9884e-12 0)
(-5.69795e-12 -5.69795e-12 0)
(-5.03304e-12 -4.07786e-12 0)
(-4.33392e-12 -2.95853e-12 0)
(-3.69812e-12 -2.18506e-12 0)
(-3.15382e-12 -1.64452e-12 0)
(-3.27018e-11 -1.26064e-12 0)
(3.1185e-11 -1.35597e-12 0)
(2.6974e-12 -1.72804e-12 0)
(3.06661e-12 -2.22942e-12 0)
(3.45638e-12 -2.90801e-12 0)
(3.82285e-12 -3.82285e-12 0)
(4.07786e-12 -5.03304e-12 0)
(4.07352e-12 -6.56227e-12 0)
(3.61642e-12 -8.32149e-12 0)
(2.55404e-12 -1.00044e-11 0)
(9.296e-13 -1.10815e-11 0)
(-9.296e-13 -1.10815e-11 0)
(-2.55404e-12 -1.00044e-11 0)
(-3.61642e-12 -8.32149e-12 0)
(-4.07352e-12 -6.56227e-12 0)
(-4.07786e-12 -5.03304e-12 0)
(-3.82285e-12 -3.82285e-12 0)
(-3.45638e-12 -2.90801e-12 0)
(-3.06661e-12 -2.22942e-12 0)
(-2.6974e-12 -1.72804e-12 0)
(-3.1185e-11 -1.35597e-12 0)
(2.96178e-11 -1.3925e-12 0)
(2.28037e-12 -1.73388e-12 0)
(2.51815e-12 -2.17455e-12 0)
(2.74049e-12 -2.74049e-12 0)
(2.90801e-12 -3.45638e-12 0)
(2.95853e-12 -4.33392e-12 0)
(2.80865e-12 -5.34918e-12 0)
(2.3732e-12 -6.41044e-12 0)
(1.60981e-12 -7.33635e-12 0)
(5.72662e-13 -7.88919e-12 0)
(-5.72662e-13 -7.88919e-12 0)
(-1.60981e-12 -7.33635e-12 0)
(-2.3732e-12 -6.41044e-12 0)
(-2.80865e-12 -5.34918e-12 0)
(-2.95853e-12 -4.33392e-12 0)
(-2.90801e-12 -3.45638e-12 0)
(-2.74049e-12 -2.74049e-12 0)
(-2.51815e-12 -2.17455e-12 0)
(-2.28037e-12 -1.73388e-12 0)
(-2.96178e-11 -1.3925e-12 0)
(2.80586e-11 -1.38424e-12 0)
(1.91535e-12 -1.68593e-12 0)
(2.06e-12 -2.06e-12 0)
(2.17455e-12 -2.51815e-12 0)
(2.22942e-12 -3.06661e-12 0)
(2.18506e-12 -3.69812e-12 0)
(1.99699e-12 -4.38061e-12 0)
(1.62924e-12 -5.0464e-12 0)
(1.07529e-12 -5.5924e-12 0)
(3.76763e-13 -5.90439e-12 0)
(-3.76763e-13 -5.90439e-12 0)
(-1.07529e-12 -5.5924e-12 0)
(-1.62924e-12 -5.0464e-12 0)
(-1.99699e-12 -4.38061e-12 0)
(-2.18506e-12 -3.69812e-12 0)
(-2.22942e-12 -3.06661e-12 0)
(-2.17455e-12 -2.51815e-12 0)
(-2.06e-12 -2.06e-12 0)
(-1.91535e-12 -1.68593e-12 0)
(-2.80586e-11 -1.38424e-12 0)
(2.65476e-11 -1.34465e-12 0)
(1.60462e-12 -1.60462e-12 0)
(1.68593e-12 -1.91535e-12 0)
(1.73388e-12 -2.28037e-12 0)
(1.72804e-12 -2.6974e-12 0)
(1.64452e-12 -3.15382e-12 0)
(1.46037e-12 -3.62181e-12 0)
(1.1614e-12 -4.0558e-12 0)
(7.51827e-13 -4.39664e-12 0)
(2.6068e-13 -4.58574e-12 0)
(-2.6068e-13 -4.58574e-12 0)
(-7.51827e-13 -4.39664e-12 0)
(-1.1614e-12 -4.0558e-12 0)
(-1.46037e-12 -3.62181e-12 0)
(-1.64452e-12 -3.15382e-12 0)
(-1.72804e-12 -2.6974e-12 0)
(-1.73388e-12 -2.28037e-12 0)
(-1.68593e-12 -1.91535e-12 0)
(-1.60462e-12 -1.60462e-12 0)
(-2.65476e-11 -1.34465e-12 0)
(2.51094e-11 -2.51094e-11 0)
(1.34465e-12 -2.65476e-11 0)
(1.38424e-12 -2.80586e-11 0)
(1.3925e-12 -2.96178e-11 0)
(1.35597e-12 -3.1185e-11 0)
(1.26064e-12 -3.27018e-11 0)
(1.09502e-12 -3.40902e-11 0)
(8.5441e-13 -3.52572e-11 0)
(5.45346e-13 -3.6106e-11 0)
(1.87668e-13 -3.65543e-11 0)
(-1.87668e-13 -3.65543e-11 0)
(-5.45346e-13 -3.6106e-11 0)
(-8.5441e-13 -3.52572e-11 0)
(-1.09502e-12 -3.40902e-11 0)
(-1.26064e-12 -3.27018e-11 0)
(-1.35597e-12 -3.1185e-11 0)
(-1.3925e-12 -2.96178e-11 0)
(-1.38424e-12 -2.80586e-11 0)
(-1.34465e-12 -2.65476e-11 0)
(-2.51094e-11 -2.51094e-11 0)
)
;

boundaryField
{
    movingWall
    {
        type            fixedValue;
        value           uniform (1 0 0);
    }
    fixedWalls
    {
        type            fixedValue;
        value           uniform (0 0 0);
    }
    frontAndBack
    {
        type            empty;
    }
}


// ************************************************************************* //
