/*--------------------------------*- C++ -*----------------------------------*\
| =========                 |                                                 |
| \\      /  F ield         | OpenFOAM: The Open Source CFD Toolbox           |
|  \\    /   O peration     | Version:  v2012                                 |
|   \\  /    A nd           | Website:  www.openfoam.com                      |
|    \\/     M anipulation  |                                                 |
\*---------------------------------------------------------------------------*/
FoamFile
{
    version     2.0;
    format      ascii;
    class       volVectorField;
    location    "5.5";
    object      U;
}
// * * * * * * * * * * * * * * * * * * * * * * * * * * * * * * * * * * * * * //

dimensions      [0 1 -1 0 0 0 0];


internalField   nonuniform List<vector> 
400
(
(1.60162e-11 1.60162e-11 0)
(8.577e-13 1.69336e-11 0)
(8.82953e-13 1.78975e-11 0)
(8.8822e-13 1.8892e-11 0)
(8.64919e-13 1.98917e-11 0)
(8.04114e-13 2.08591e-11 0)
(6.98466e-13 2.17447e-11 0)
(5.44994e-13 2.24891e-11 0)
(3.47854e-13 2.30306e-11 0)
(1.19706e-13 2.33165e-11 0)
(-1.19706e-13 2.33165e-11 0)
(-3.47854e-13 2.30306e-11 0)
(-5.44994e-13 2.24891e-11 0)
(-6.98466e-13 2.17447e-11 0)
(-8.04114e-13 2.08591e-11 0)
(-8.64919e-13 1.98917e-11 0)
(-8.8822e-13 1.8892e-11 0)
(-8.82953e-13 1.78975e-11 0)
(-8.577e-13 1.69336e-11 0)
(-1.60162e-11 1.60162e-11 0)
(1.69336e-11 8.577e-13 0)
(1.02352e-12 1.02352e-12 0)
(1.07539e-12 1.22173e-12 0)
(1.10597e-12 1.45456e-12 0)
(1.10225e-12 1.72056e-12 0)
(1.04897e-12 2.01169e-12 0)
(9.3151e-13 2.31021e-12 0)
(7.40813e-13 2.58703e-12 0)
(4.7956e-13 2.80444e-12 0)
(1.66277e-13 2.92506e-12 0)
(-1.66277e-13 2.92506e-12 0)
(-4.7956e-13 2.80444e-12 0)
(-7.40813e-13 2.58703e-12 0)
(-9.3151e-13 2.31021e-12 0)
(-1.04897e-12 2.01169e-12 0)
(-1.10225e-12 1.72056e-12 0)
(-1.10597e-12 1.45456e-12 0)
(-1.07539e-12 1.22173e-12 0)
(-1.02352e-12 1.02352e-12 0)
(-1.69336e-11 8.577e-13 0)
(1.78975e-11 8.82953e-13 0)
(1.22173e-12 1.07539e-12 0)
(1.31399e-12 1.31399e-12 0)
(1.38706e-12 1.60623e-12 0)
(1.42206e-12 1.95606e-12 0)
(1.39376e-12 2.35888e-12 0)
(1.2738e-12 2.79422e-12 0)
(1.03923e-12 3.2189e-12 0)
(6.85883e-13 3.56717e-12 0)
(2.40322e-13 3.76617e-12 0)
(-2.40322e-13 3.76617e-12 0)
(-6.85883e-13 3.56717e-12 0)
(-1.03923e-12 3.2189e-12 0)
(-1.2738e-12 2.79422e-12 0)
(-1.39376e-12 2.35888e-12 0)
(-1.42206e-12 1.95606e-12 0)
(-1.38706e-12 1.60623e-12 0)
(-1.31399e-12 1.31399e-12 0)
(-1.22173e-12 1.07539e-12 0)
(-1.78975e-11 8.82953e-13 0)
(1.8892e-11 8.8822e-13 0)
(1.45456e-12 1.10597e-12 0)
(1.60623e-12 1.38706e-12 0)
(1.74805e-12 1.74805e-12 0)
(1.8549e-12 2.20468e-12 0)
(1.88713e-12 2.76443e-12 0)
(1.79153e-12 3.41203e-12 0)
(1.51377e-12 4.08896e-12 0)
(1.02683e-12 4.67956e-12 0)
(3.65278e-13 5.0322e-12 0)
(-3.65278e-13 5.0322e-12 0)
(-1.02683e-12 4.67956e-12 0)
(-1.51377e-12 4.08896e-12 0)
(-1.79153e-12 3.41203e-12 0)
(-1.88713e-12 2.76443e-12 0)
(-1.8549e-12 2.20468e-12 0)
(-1.74805e-12 1.74805e-12 0)
(-1.60623e-12 1.38706e-12 0)
(-1.45456e-12 1.10597e-12 0)
(-1.8892e-11 8.8822e-13 0)
(1.98917e-11 8.64919e-13 0)
(1.72056e-12 1.10225e-12 0)
(1.95606e-12 1.42206e-12 0)
(2.20468e-12 1.8549e-12 0)
(2.43844e-12 2.43844e-12 0)
(2.6011e-12 3.21037e-12 0)
(2.59833e-12 4.18581e-12 0)
(2.30677e-12 5.30794e-12 0)
(1.62912e-12 6.38142e-12 0)
(5.92955e-13 7.06846e-12 0)
(-5.92955e-13 7.06846e-12 0)
(-1.62912e-12 6.38142e-12 0)
(-2.30677e-12 5.30794e-12 0)
(-2.59833e-12 4.18581e-12 0)
(-2.6011e-12 3.21037e-12 0)
(-2.43844e-12 2.43844e-12 0)
(-2.20468e-12 1.8549e-12 0)
(-1.95606e-12 1.42206e-12 0)
(-1.72056e-12 1.10225e-12 0)
(-1.98917e-11 8.64919e-13 0)
(2.08591e-11 8.04114e-13 0)
(2.01169e-12 1.04897e-12 0)
(2.35888e-12 1.39376e-12 0)
(2.76443e-12 1.88713e-12 0)
(3.21037e-12 2.6011e-12 0)
(3.63449e-12 3.63449e-12 0)
(3.8891e-12 5.09548e-12 0)
(3.70938e-12 7.0165e-12 0)
(2.78735e-12 9.13558e-12 0)
(1.05231e-12 1.0662e-11 0)
(-1.05231e-12 1.0662e-11 0)
(-2.78735e-12 9.13558e-12 0)
(-3.70938e-12 7.0165e-12 0)
(-3.8891e-12 5.09548e-12 0)
(-3.63449e-12 3.63449e-12 0)
(-3.21037e-12 2.6011e-12 0)
(-2.76443e-12 1.88713e-12 0)
(-2.35888e-12 1.39376e-12 0)
(-2.01169e-12 1.04897e-12 0)
(-2.08591e-11 8.04114e-13 0)
(2.17447e-11 6.98466e-13 0)
(2.31021e-12 9.3151e-13 0)
(2.79422e-12 1.2738e-12 0)
(3.41203e-12 1.79153e-12 0)
(4.18581e-12 2.59833e-12 0)
(5.09548e-12 3.8891e-12 0)
(5.98033e-12 5.98033e-12 0)
(6.34687e-12 9.28061e-12 0)
(5.27462e-12 1.38476e-11 0)
(2.11937e-12 1.79534e-11 0)
(-2.11937e-12 1.79534e-11 0)
(-5.27462e-12 1.38476e-11 0)
(-6.34687e-12 9.28061e-12 0)
(-5.98033e-12 5.98033e-12 0)
(-5.09548e-12 3.8891e-12 0)
(-4.18581e-12 2.59833e-12 0)
(-3.41203e-12 1.79153e-12 0)
(-2.79422e-12 1.2738e-12 0)
(-2.31021e-12 9.3151e-13 0)
(-2.17447e-11 6.98466e-13 0)
(2.24891e-11 5.44994e-13 0)
(2.58703e-12 7.40813e-13 0)
(3.2189e-12 1.03923e-12 0)
(4.08896e-12 1.51377e-12 0)
(5.30794e-12 2.30677e-12 0)
(7.0165e-12 3.70938e-12 0)
(9.28061e-12 6.34687e-12 0)
(1.15767e-11 1.15767e-11 0)
(1.14601e-11 2.18739e-11 0)
(5.15808e-12 3.6627e-11 0)
(-5.15808e-12 3.6627e-11 0)
(-1.14601e-11 2.18739e-11 0)
(-1.15767e-11 1.15767e-11 0)
(-9.28061e-12 6.34687e-12 0)
(-7.0165e-12 3.70938e-12 0)
(-5.30794e-12 2.30677e-12 0)
(-4.08896e-12 1.51377e-12 0)
(-3.2189e-12 1.03923e-12 0)
(-2.58703e-12 7.40813e-13 0)
(-2.24891e-11 5.44994e-13 0)
(2.30306e-11 3.47854e-13 0)
(2.80444e-12 4.7956e-13 0)
(3.56717e-12 6.85883e-13 0)
(4.67956e-12 1.02683e-12 0)
(6.38142e-12 1.62912e-12 0)
(9.13558e-12 2.78735e-12 0)
(1.38476e-11 5.27462e-12 0)
(2.18739e-11 1.14601e-11 0)
(3.03249e-11 3.03249e-11 0)
(1.68724e-11 1.07067e-10 0)
(-1.68724e-11 1.07067e-10 0)
(-3.03249e-11 3.03249e-11 0)
(-2.18739e-11 1.14601e-11 0)
(-1.38476e-11 5.27462e-12 0)
(-9.13558e-12 2.78735e-12 0)
(-6.38142e-12 1.62912e-12 0)
(-4.67956e-12 1.02683e-12 0)
(-3.56717e-12 6.85883e-13 0)
(-2.80444e-12 4.7956e-13 0)
(-2.30306e-11 3.47854e-13 0)
(2.33165e-11 1.19706e-13 0)
(2.92506e-12 1.66277e-13 0)
(3.76617e-12 2.40322e-13 0)
(5.0322e-12 3.65278e-13 0)
(7.06846e-12 5.92955e-13 0)
(1.0662e-11 1.05231e-12 0)
(1.79534e-11 2.11937e-12 0)
(3.6627e-11 5.15808e-12 0)
(1.07067e-10 1.68724e-11 0)
(8.19004e-11 8.19004e-11 0)
(-8.19004e-11 8.19004e-11 0)
(-1.07067e-10 1.68724e-11 0)
(-3.6627e-11 5.15808e-12 0)
(-1.79534e-11 2.11937e-12 0)
(-1.0662e-11 1.05231e-12 0)
(-7.06846e-12 5.92955e-13 0)
(-5.0322e-12 3.65278e-13 0)
(-3.76617e-12 2.40322e-13 0)
(-2.92506e-12 1.66277e-13 0)
(-2.33165e-11 1.19706e-13 0)
(2.33165e-11 -1.19706e-13 0)
(2.92506e-12 -1.66277e-13 0)
(3.76617e-12 -2.40322e-13 0)
(5.0322e-12 -3.65278e-13 0)
(7.06846e-12 -5.92955e-13 0)
(1.0662e-11 -1.05231e-12 0)
(1.79534e-11 -2.11937e-12 0)
(3.6627e-11 -5.15808e-12 0)
(1.07067e-10 -1.68724e-11 0)
(8.19004e-11 -8.19004e-11 0)
(-8.19004e-11 -8.19004e-11 0)
(-1.07067e-10 -1.68724e-11 0)
(-3.6627e-11 -5.15808e-12 0)
(-1.79534e-11 -2.11937e-12 0)
(-1.0662e-11 -1.05231e-12 0)
(-7.06846e-12 -5.92955e-13 0)
(-5.0322e-12 -3.65278e-13 0)
(-3.76617e-12 -2.40322e-13 0)
(-2.92506e-12 -1.66277e-13 0)
(-2.33165e-11 -1.19706e-13 0)
(2.30306e-11 -3.47854e-13 0)
(2.80444e-12 -4.7956e-13 0)
(3.56717e-12 -6.85883e-13 0)
(4.67956e-12 -1.02683e-12 0)
(6.38142e-12 -1.62912e-12 0)
(9.13558e-12 -2.78735e-12 0)
(1.38476e-11 -5.27462e-12 0)
(2.18739e-11 -1.14601e-11 0)
(3.03249e-11 -3.03249e-11 0)
(1.68724e-11 -1.07067e-10 0)
(-1.68724e-11 -1.07067e-10 0)
(-3.03249e-11 -3.03249e-11 0)
(-2.18739e-11 -1.14601e-11 0)
(-1.38476e-11 -5.27462e-12 0)
(-9.13558e-12 -2.78735e-12 0)
(-6.38142e-12 -1.62912e-12 0)
(-4.67956e-12 -1.02683e-12 0)
(-3.56717e-12 -6.85883e-13 0)
(-2.80444e-12 -4.7956e-13 0)
(-2.30306e-11 -3.47854e-13 0)
(2.24891e-11 -5.44994e-13 0)
(2.58703e-12 -7.40813e-13 0)
(3.2189e-12 -1.03923e-12 0)
(4.08896e-12 -1.51377e-12 0)
(5.30794e-12 -2.30677e-12 0)
(7.0165e-12 -3.70938e-12 0)
(9.28061e-12 -6.34687e-12 0)
(1.15767e-11 -1.15767e-11 0)
(1.14601e-11 -2.18739e-11 0)
(5.15808e-12 -3.6627e-11 0)
(-5.15808e-12 -3.6627e-11 0)
(-1.14601e-11 -2.18739e-11 0)
(-1.15767e-11 -1.15767e-11 0)
(-9.28061e-12 -6.34687e-12 0)
(-7.0165e-12 -3.70938e-12 0)
(-5.30794e-12 -2.30677e-12 0)
(-4.08896e-12 -1.51377e-12 0)
(-3.2189e-12 -1.03923e-12 0)
(-2.58703e-12 -7.40813e-13 0)
(-2.24891e-11 -5.44994e-13 0)
(2.17447e-11 -6.98466e-13 0)
(2.31021e-12 -9.3151e-13 0)
(2.79422e-12 -1.2738e-12 0)
(3.41203e-12 -1.79153e-12 0)
(4.18581e-12 -2.59833e-12 0)
(5.09548e-12 -3.8891e-12 0)
(5.98033e-12 -5.98033e-12 0)
(6.34687e-12 -9.28061e-12 0)
(5.27462e-12 -1.38476e-11 0)
(2.11937e-12 -1.79534e-11 0)
(-2.11937e-12 -1.79534e-11 0)
(-5.27462e-12 -1.38476e-11 0)
(-6.34687e-12 -9.28061e-12 0)
(-5.98033e-12 -5.98033e-12 0)
(-5.09548e-12 -3.8891e-12 0)
(-4.18581e-12 -2.59833e-12 0)
(-3.41203e-12 -1.79153e-12 0)
(-2.79422e-12 -1.2738e-12 0)
(-2.31021e-12 -9.3151e-13 0)
(-2.17447e-11 -6.98466e-13 0)
(2.08591e-11 -8.04114e-13 0)
(2.01169e-12 -1.04897e-12 0)
(2.35888e-12 -1.39376e-12 0)
(2.76443e-12 -1.88713e-12 0)
(3.21037e-12 -2.6011e-12 0)
(3.63449e-12 -3.63449e-12 0)
(3.8891e-12 -5.09548e-12 0)
(3.70938e-12 -7.0165e-12 0)
(2.78735e-12 -9.13558e-12 0)
(1.05231e-12 -1.0662e-11 0)
(-1.05231e-12 -1.0662e-11 0)
(-2.78735e-12 -9.13558e-12 0)
(-3.70938e-12 -7.0165e-12 0)
(-3.8891e-12 -5.09548e-12 0)
(-3.63449e-12 -3.63449e-12 0)
(-3.21037e-12 -2.6011e-12 0)
(-2.76443e-12 -1.88713e-12 0)
(-2.35888e-12 -1.39376e-12 0)
(-2.01169e-12 -1.04897e-12 0)
(-2.08591e-11 -8.04114e-13 0)
(1.98917e-11 -8.64919e-13 0)
(1.72056e-12 -1.10225e-12 0)
(1.95606e-12 -1.42206e-12 0)
(2.20468e-12 -1.8549e-12 0)
(2.43844e-12 -2.43844e-12 0)
(2.6011e-12 -3.21037e-12 0)
(2.59833e-12 -4.18581e-12 0)
(2.30677e-12 -5.30794e-12 0)
(1.62912e-12 -6.38142e-12 0)
(5.92955e-13 -7.06846e-12 0)
(-5.92955e-13 -7.06846e-12 0)
(-1.62912e-12 -6.38142e-12 0)
(-2.30677e-12 -5.30794e-12 0)
(-2.59833e-12 -4.18581e-12 0)
(-2.6011e-12 -3.21037e-12 0)
(-2.43844e-12 -2.43844e-12 0)
(-2.20468e-12 -1.8549e-12 0)
(-1.95606e-12 -1.42206e-12 0)
(-1.72056e-12 -1.10225e-12 0)
(-1.98917e-11 -8.64919e-13 0)
(1.8892e-11 -8.8822e-13 0)
(1.45456e-12 -1.10597e-12 0)
(1.60623e-12 -1.38706e-12 0)
(1.74805e-12 -1.74805e-12 0)
(1.8549e-12 -2.20468e-12 0)
(1.88713e-12 -2.76443e-12 0)
(1.79153e-12 -3.41203e-12 0)
(1.51377e-12 -4.08896e-12 0)
(1.02683e-12 -4.67956e-12 0)
(3.65278e-13 -5.0322e-12 0)
(-3.65278e-13 -5.0322e-12 0)
(-1.02683e-12 -4.67956e-12 0)
(-1.51377e-12 -4.08896e-12 0)
(-1.79153e-12 -3.41203e-12 0)
(-1.88713e-12 -2.76443e-12 0)
(-1.8549e-12 -2.20468e-12 0)
(-1.74805e-12 -1.74805e-12 0)
(-1.60623e-12 -1.38706e-12 0)
(-1.45456e-12 -1.10597e-12 0)
(-1.8892e-11 -8.8822e-13 0)
(1.78975e-11 -8.82953e-13 0)
(1.22173e-12 -1.07539e-12 0)
(1.31399e-12 -1.31399e-12 0)
(1.38706e-12 -1.60623e-12 0)
(1.42206e-12 -1.95606e-12 0)
(1.39376e-12 -2.35888e-12 0)
(1.2738e-12 -2.79422e-12 0)
(1.03923e-12 -3.2189e-12 0)
(6.85883e-13 -3.56717e-12 0)
(2.40322e-13 -3.76617e-12 0)
(-2.40322e-13 -3.76617e-12 0)
(-6.85883e-13 -3.56717e-12 0)
(-1.03923e-12 -3.2189e-12 0)
(-1.2738e-12 -2.79422e-12 0)
(-1.39376e-12 -2.35888e-12 0)
(-1.42206e-12 -1.95606e-12 0)
(-1.38706e-12 -1.60623e-12 0)
(-1.31399e-12 -1.31399e-12 0)
(-1.22173e-12 -1.07539e-12 0)
(-1.78975e-11 -8.82953e-13 0)
(1.69336e-11 -8.577e-13 0)
(1.02352e-12 -1.02352e-12 0)
(1.07539e-12 -1.22173e-12 0)
(1.10597e-12 -1.45456e-12 0)
(1.10225e-12 -1.72056e-12 0)
(1.04897e-12 -2.01169e-12 0)
(9.3151e-13 -2.31021e-12 0)
(7.40813e-13 -2.58703e-12 0)
(4.7956e-13 -2.80444e-12 0)
(1.66277e-13 -2.92506e-12 0)
(-1.66277e-13 -2.92506e-12 0)
(-4.7956e-13 -2.80444e-12 0)
(-7.40813e-13 -2.58703e-12 0)
(-9.3151e-13 -2.31021e-12 0)
(-1.04897e-12 -2.01169e-12 0)
(-1.10225e-12 -1.72056e-12 0)
(-1.10597e-12 -1.45456e-12 0)
(-1.07539e-12 -1.22173e-12 0)
(-1.02352e-12 -1.02352e-12 0)
(-1.69336e-11 -8.577e-13 0)
(1.60162e-11 -1.60162e-11 0)
(8.577e-13 -1.69336e-11 0)
(8.82953e-13 -1.78975e-11 0)
(8.8822e-13 -1.8892e-11 0)
(8.64919e-13 -1.98917e-11 0)
(8.04114e-13 -2.08591e-11 0)
(6.98466e-13 -2.17447e-11 0)
(5.44994e-13 -2.24891e-11 0)
(3.47854e-13 -2.30306e-11 0)
(1.19706e-13 -2.33165e-11 0)
(-1.19706e-13 -2.33165e-11 0)
(-3.47854e-13 -2.30306e-11 0)
(-5.44994e-13 -2.24891e-11 0)
(-6.98466e-13 -2.17447e-11 0)
(-8.04114e-13 -2.08591e-11 0)
(-8.64919e-13 -1.98917e-11 0)
(-8.8822e-13 -1.8892e-11 0)
(-8.82953e-13 -1.78975e-11 0)
(-8.577e-13 -1.69336e-11 0)
(-1.60162e-11 -1.60162e-11 0)
)
;

boundaryField
{
    movingWall
    {
        type            fixedValue;
        value           uniform (1 0 0);
    }
    fixedWalls
    {
        type            fixedValue;
        value           uniform (0 0 0);
    }
    frontAndBack
    {
        type            empty;
    }
}


// ************************************************************************* //
