/*--------------------------------*- C++ -*----------------------------------*\
| =========                 |                                                 |
| \\      /  F ield         | OpenFOAM: The Open Source CFD Toolbox           |
|  \\    /   O peration     | Version:  v2012                                 |
|   \\  /    A nd           | Website:  www.openfoam.com                      |
|    \\/     M anipulation  |                                                 |
\*---------------------------------------------------------------------------*/
FoamFile
{
    version     2.0;
    format      ascii;
    class       volVectorField;
    location    "2.5";
    object      U;
}
// * * * * * * * * * * * * * * * * * * * * * * * * * * * * * * * * * * * * * //

dimensions      [0 1 -1 0 0 0 0];


internalField   nonuniform List<vector> 
400
(
(1.29119e-13 1.29119e-13 0)
(6.91457e-15 1.36515e-13 0)
(7.11815e-15 1.44285e-13 0)
(7.16061e-15 1.52303e-13 0)
(6.97276e-15 1.60362e-13 0)
(6.48257e-15 1.68161e-13 0)
(5.63086e-15 1.75301e-13 0)
(4.3936e-15 1.81302e-13 0)
(2.80431e-15 1.85667e-13 0)
(9.65037e-16 1.87972e-13 0)
(-9.65037e-16 1.87972e-13 0)
(-2.80431e-15 1.85667e-13 0)
(-4.3936e-15 1.81302e-13 0)
(-5.63086e-15 1.75301e-13 0)
(-6.48257e-15 1.68161e-13 0)
(-6.97276e-15 1.60362e-13 0)
(-7.16061e-15 1.52303e-13 0)
(-7.11815e-15 1.44285e-13 0)
(-6.91457e-15 1.36515e-13 0)
(-1.29119e-13 1.29119e-13 0)
(1.36515e-13 6.91457e-15 0)
(8.25139e-15 8.25139e-15 0)
(8.66952e-15 9.84926e-15 0)
(8.91606e-15 1.17263e-14 0)
(8.88603e-15 1.38708e-14 0)
(8.45657e-15 1.62178e-14 0)
(7.50961e-15 1.86243e-14 0)
(5.97225e-15 2.0856e-14 0)
(3.8661e-15 2.26087e-14 0)
(1.34049e-15 2.35811e-14 0)
(-1.34049e-15 2.35811e-14 0)
(-3.8661e-15 2.26087e-14 0)
(-5.97225e-15 2.0856e-14 0)
(-7.50961e-15 1.86243e-14 0)
(-8.45657e-15 1.62178e-14 0)
(-8.88603e-15 1.38708e-14 0)
(-8.91606e-15 1.17263e-14 0)
(-8.66952e-15 9.84926e-15 0)
(-8.25139e-15 8.25139e-15 0)
(-1.36515e-13 6.91457e-15 0)
(1.44285e-13 7.11815e-15 0)
(9.84926e-15 8.66952e-15 0)
(1.05931e-14 1.05931e-14 0)
(1.11821e-14 1.2949e-14 0)
(1.14643e-14 1.57693e-14 0)
(1.12361e-14 1.90167e-14 0)
(1.02691e-14 2.25263e-14 0)
(8.378e-15 2.59499e-14 0)
(5.52942e-15 2.87576e-14 0)
(1.93742e-15 3.03619e-14 0)
(-1.93742e-15 3.03619e-14 0)
(-5.52942e-15 2.87576e-14 0)
(-8.378e-15 2.59499e-14 0)
(-1.02691e-14 2.25263e-14 0)
(-1.12361e-14 1.90167e-14 0)
(-1.14643e-14 1.57693e-14 0)
(-1.11821e-14 1.2949e-14 0)
(-1.05931e-14 1.05931e-14 0)
(-9.84926e-15 8.66952e-15 0)
(-1.44285e-13 7.11815e-15 0)
(1.52303e-13 7.16061e-15 0)
(1.17263e-14 8.91606e-15 0)
(1.2949e-14 1.11821e-14 0)
(1.40923e-14 1.40923e-14 0)
(1.49537e-14 1.77736e-14 0)
(1.52135e-14 2.22862e-14 0)
(1.44428e-14 2.75069e-14 0)
(1.22036e-14 3.29642e-14 0)
(8.27808e-15 3.77255e-14 0)
(2.94478e-15 4.05683e-14 0)
(-2.94478e-15 4.05683e-14 0)
(-8.27808e-15 3.77255e-14 0)
(-1.22036e-14 3.29642e-14 0)
(-1.44428e-14 2.75069e-14 0)
(-1.52135e-14 2.22862e-14 0)
(-1.49537e-14 1.77736e-14 0)
(-1.40923e-14 1.40923e-14 0)
(-1.2949e-14 1.11821e-14 0)
(-1.17263e-14 8.91606e-15 0)
(-1.52303e-13 7.16061e-15 0)
(1.60362e-13 6.97276e-15 0)
(1.38708e-14 8.88603e-15 0)
(1.57693e-14 1.14643e-14 0)
(1.77736e-14 1.49537e-14 0)
(1.96581e-14 1.96581e-14 0)
(2.09695e-14 2.58812e-14 0)
(2.09471e-14 3.3745e-14 0)
(1.85966e-14 4.27913e-14 0)
(1.31336e-14 5.14455e-14 0)
(4.78025e-15 5.69842e-14 0)
(-4.78025e-15 5.69842e-14 0)
(-1.31336e-14 5.14455e-14 0)
(-1.85966e-14 4.27913e-14 0)
(-2.09471e-14 3.3745e-14 0)
(-2.09695e-14 2.58812e-14 0)
(-1.96581e-14 1.96581e-14 0)
(-1.77736e-14 1.49537e-14 0)
(-1.57693e-14 1.14643e-14 0)
(-1.38708e-14 8.88603e-15 0)
(-1.60362e-13 6.97276e-15 0)
(1.68161e-13 6.48257e-15 0)
(1.62178e-14 8.45657e-15 0)
(1.90167e-14 1.12361e-14 0)
(2.22862e-14 1.52135e-14 0)
(2.58812e-14 2.09695e-14 0)
(2.93004e-14 2.93004e-14 0)
(3.1353e-14 4.10785e-14 0)
(2.99041e-14 5.65653e-14 0)
(2.24709e-14 7.36488e-14 0)
(8.48347e-15 8.59544e-14 0)
(-8.48347e-15 8.59544e-14 0)
(-2.24709e-14 7.36488e-14 0)
(-2.99041e-14 5.65653e-14 0)
(-3.1353e-14 4.10785e-14 0)
(-2.93004e-14 2.93004e-14 0)
(-2.58812e-14 2.09695e-14 0)
(-2.22862e-14 1.52135e-14 0)
(-1.90167e-14 1.12361e-14 0)
(-1.62178e-14 8.45657e-15 0)
(-1.68161e-13 6.48257e-15 0)
(1.75301e-13 5.63086e-15 0)
(1.86243e-14 7.50961e-15 0)
(2.25263e-14 1.02691e-14 0)
(2.75069e-14 1.44428e-14 0)
(3.3745e-14 2.09471e-14 0)
(4.10785e-14 3.1353e-14 0)
(4.8212e-14 4.8212e-14 0)
(5.11669e-14 7.4818e-14 0)
(4.25227e-14 1.11636e-13 0)
(1.70858e-14 1.44736e-13 0)
(-1.70858e-14 1.44736e-13 0)
(-4.25227e-14 1.11636e-13 0)
(-5.11669e-14 7.4818e-14 0)
(-4.8212e-14 4.8212e-14 0)
(-4.10785e-14 3.1353e-14 0)
(-3.3745e-14 2.09471e-14 0)
(-2.75069e-14 1.44428e-14 0)
(-2.25263e-14 1.02691e-14 0)
(-1.86243e-14 7.50961e-15 0)
(-1.75301e-13 5.63086e-15 0)
(1.81302e-13 4.3936e-15 0)
(2.0856e-14 5.97225e-15 0)
(2.59499e-14 8.378e-15 0)
(3.29642e-14 1.22036e-14 0)
(4.27913e-14 1.85966e-14 0)
(5.65653e-14 2.99041e-14 0)
(7.4818e-14 5.11669e-14 0)
(9.33282e-14 9.33282e-14 0)
(9.23887e-14 1.76342e-13 0)
(4.15832e-14 2.95278e-13 0)
(-4.15832e-14 2.95278e-13 0)
(-9.23887e-14 1.76342e-13 0)
(-9.33282e-14 9.33282e-14 0)
(-7.4818e-14 5.11669e-14 0)
(-5.65653e-14 2.99041e-14 0)
(-4.27913e-14 1.85966e-14 0)
(-3.29642e-14 1.22036e-14 0)
(-2.59499e-14 8.378e-15 0)
(-2.0856e-14 5.97225e-15 0)
(-1.81302e-13 4.3936e-15 0)
(1.85667e-13 2.80431e-15 0)
(2.26087e-14 3.8661e-15 0)
(2.87576e-14 5.52942e-15 0)
(3.77255e-14 8.27808e-15 0)
(5.14455e-14 1.31336e-14 0)
(7.36488e-14 2.24709e-14 0)
(1.11636e-13 4.25227e-14 0)
(1.76342e-13 9.23887e-14 0)
(2.44472e-13 2.44472e-13 0)
(1.36021e-13 8.6315e-13 0)
(-1.36021e-13 8.6315e-13 0)
(-2.44472e-13 2.44472e-13 0)
(-1.76342e-13 9.23887e-14 0)
(-1.11636e-13 4.25227e-14 0)
(-7.36488e-14 2.24709e-14 0)
(-5.14455e-14 1.31336e-14 0)
(-3.77255e-14 8.27808e-15 0)
(-2.87576e-14 5.52942e-15 0)
(-2.26087e-14 3.8661e-15 0)
(-1.85667e-13 2.80431e-15 0)
(1.87972e-13 9.65037e-16 0)
(2.35811e-14 1.34049e-15 0)
(3.03619e-14 1.93742e-15 0)
(4.05683e-14 2.94478e-15 0)
(5.69842e-14 4.78025e-15 0)
(8.59544e-14 8.48347e-15 0)
(1.44736e-13 1.70858e-14 0)
(2.95278e-13 4.15832e-14 0)
(8.6315e-13 1.36021e-13 0)
(6.60261e-13 6.60261e-13 0)
(-6.60261e-13 6.60261e-13 0)
(-8.6315e-13 1.36021e-13 0)
(-2.95278e-13 4.15832e-14 0)
(-1.44736e-13 1.70858e-14 0)
(-8.59544e-14 8.48347e-15 0)
(-5.69842e-14 4.78025e-15 0)
(-4.05683e-14 2.94478e-15 0)
(-3.03619e-14 1.93742e-15 0)
(-2.35811e-14 1.34049e-15 0)
(-1.87972e-13 9.65037e-16 0)
(1.87972e-13 -9.65037e-16 0)
(2.35811e-14 -1.34049e-15 0)
(3.03619e-14 -1.93742e-15 0)
(4.05683e-14 -2.94478e-15 0)
(5.69842e-14 -4.78025e-15 0)
(8.59544e-14 -8.48347e-15 0)
(1.44736e-13 -1.70858e-14 0)
(2.95278e-13 -4.15832e-14 0)
(8.6315e-13 -1.36021e-13 0)
(6.60261e-13 -6.60261e-13 0)
(-6.60261e-13 -6.60261e-13 0)
(-8.6315e-13 -1.36021e-13 0)
(-2.95278e-13 -4.15832e-14 0)
(-1.44736e-13 -1.70858e-14 0)
(-8.59544e-14 -8.48347e-15 0)
(-5.69842e-14 -4.78025e-15 0)
(-4.05683e-14 -2.94478e-15 0)
(-3.03619e-14 -1.93742e-15 0)
(-2.35811e-14 -1.34049e-15 0)
(-1.87972e-13 -9.65037e-16 0)
(1.85667e-13 -2.80431e-15 0)
(2.26087e-14 -3.8661e-15 0)
(2.87576e-14 -5.52942e-15 0)
(3.77255e-14 -8.27808e-15 0)
(5.14455e-14 -1.31336e-14 0)
(7.36488e-14 -2.24709e-14 0)
(1.11636e-13 -4.25227e-14 0)
(1.76342e-13 -9.23887e-14 0)
(2.44472e-13 -2.44472e-13 0)
(1.36021e-13 -8.6315e-13 0)
(-1.36021e-13 -8.6315e-13 0)
(-2.44472e-13 -2.44472e-13 0)
(-1.76342e-13 -9.23887e-14 0)
(-1.11636e-13 -4.25227e-14 0)
(-7.36488e-14 -2.24709e-14 0)
(-5.14455e-14 -1.31336e-14 0)
(-3.77255e-14 -8.27808e-15 0)
(-2.87576e-14 -5.52942e-15 0)
(-2.26087e-14 -3.8661e-15 0)
(-1.85667e-13 -2.80431e-15 0)
(1.81302e-13 -4.3936e-15 0)
(2.0856e-14 -5.97225e-15 0)
(2.59499e-14 -8.378e-15 0)
(3.29642e-14 -1.22036e-14 0)
(4.27913e-14 -1.85966e-14 0)
(5.65653e-14 -2.99041e-14 0)
(7.4818e-14 -5.11669e-14 0)
(9.33282e-14 -9.33282e-14 0)
(9.23887e-14 -1.76342e-13 0)
(4.15832e-14 -2.95278e-13 0)
(-4.15832e-14 -2.95278e-13 0)
(-9.23887e-14 -1.76342e-13 0)
(-9.33282e-14 -9.33282e-14 0)
(-7.4818e-14 -5.11669e-14 0)
(-5.65653e-14 -2.99041e-14 0)
(-4.27913e-14 -1.85966e-14 0)
(-3.29642e-14 -1.22036e-14 0)
(-2.59499e-14 -8.378e-15 0)
(-2.0856e-14 -5.97225e-15 0)
(-1.81302e-13 -4.3936e-15 0)
(1.75301e-13 -5.63086e-15 0)
(1.86243e-14 -7.50961e-15 0)
(2.25263e-14 -1.02691e-14 0)
(2.75069e-14 -1.44428e-14 0)
(3.3745e-14 -2.09471e-14 0)
(4.10785e-14 -3.1353e-14 0)
(4.8212e-14 -4.8212e-14 0)
(5.11669e-14 -7.4818e-14 0)
(4.25227e-14 -1.11636e-13 0)
(1.70858e-14 -1.44736e-13 0)
(-1.70858e-14 -1.44736e-13 0)
(-4.25227e-14 -1.11636e-13 0)
(-5.11669e-14 -7.4818e-14 0)
(-4.8212e-14 -4.8212e-14 0)
(-4.10785e-14 -3.1353e-14 0)
(-3.3745e-14 -2.09471e-14 0)
(-2.75069e-14 -1.44428e-14 0)
(-2.25263e-14 -1.02691e-14 0)
(-1.86243e-14 -7.50961e-15 0)
(-1.75301e-13 -5.63086e-15 0)
(1.68161e-13 -6.48257e-15 0)
(1.62178e-14 -8.45657e-15 0)
(1.90167e-14 -1.12361e-14 0)
(2.22862e-14 -1.52135e-14 0)
(2.58812e-14 -2.09695e-14 0)
(2.93004e-14 -2.93004e-14 0)
(3.1353e-14 -4.10785e-14 0)
(2.99041e-14 -5.65653e-14 0)
(2.24709e-14 -7.36488e-14 0)
(8.48347e-15 -8.59544e-14 0)
(-8.48347e-15 -8.59544e-14 0)
(-2.24709e-14 -7.36488e-14 0)
(-2.99041e-14 -5.65653e-14 0)
(-3.1353e-14 -4.10785e-14 0)
(-2.93004e-14 -2.93004e-14 0)
(-2.58812e-14 -2.09695e-14 0)
(-2.22862e-14 -1.52135e-14 0)
(-1.90167e-14 -1.12361e-14 0)
(-1.62178e-14 -8.45657e-15 0)
(-1.68161e-13 -6.48257e-15 0)
(1.60362e-13 -6.97276e-15 0)
(1.38708e-14 -8.88603e-15 0)
(1.57693e-14 -1.14643e-14 0)
(1.77736e-14 -1.49537e-14 0)
(1.96581e-14 -1.96581e-14 0)
(2.09695e-14 -2.58812e-14 0)
(2.09471e-14 -3.3745e-14 0)
(1.85966e-14 -4.27913e-14 0)
(1.31336e-14 -5.14455e-14 0)
(4.78025e-15 -5.69842e-14 0)
(-4.78025e-15 -5.69842e-14 0)
(-1.31336e-14 -5.14455e-14 0)
(-1.85966e-14 -4.27913e-14 0)
(-2.09471e-14 -3.3745e-14 0)
(-2.09695e-14 -2.58812e-14 0)
(-1.96581e-14 -1.96581e-14 0)
(-1.77736e-14 -1.49537e-14 0)
(-1.57693e-14 -1.14643e-14 0)
(-1.38708e-14 -8.88603e-15 0)
(-1.60362e-13 -6.97276e-15 0)
(1.52303e-13 -7.16061e-15 0)
(1.17263e-14 -8.91606e-15 0)
(1.2949e-14 -1.11821e-14 0)
(1.40923e-14 -1.40923e-14 0)
(1.49537e-14 -1.77736e-14 0)
(1.52135e-14 -2.22862e-14 0)
(1.44428e-14 -2.75069e-14 0)
(1.22036e-14 -3.29642e-14 0)
(8.27808e-15 -3.77255e-14 0)
(2.94478e-15 -4.05683e-14 0)
(-2.94478e-15 -4.05683e-14 0)
(-8.27808e-15 -3.77255e-14 0)
(-1.22036e-14 -3.29642e-14 0)
(-1.44428e-14 -2.75069e-14 0)
(-1.52135e-14 -2.22862e-14 0)
(-1.49537e-14 -1.77736e-14 0)
(-1.40923e-14 -1.40923e-14 0)
(-1.2949e-14 -1.11821e-14 0)
(-1.17263e-14 -8.91606e-15 0)
(-1.52303e-13 -7.16061e-15 0)
(1.44285e-13 -7.11815e-15 0)
(9.84926e-15 -8.66952e-15 0)
(1.05931e-14 -1.05931e-14 0)
(1.11821e-14 -1.2949e-14 0)
(1.14643e-14 -1.57693e-14 0)
(1.12361e-14 -1.90167e-14 0)
(1.02691e-14 -2.25263e-14 0)
(8.378e-15 -2.59499e-14 0)
(5.52942e-15 -2.87576e-14 0)
(1.93742e-15 -3.03619e-14 0)
(-1.93742e-15 -3.03619e-14 0)
(-5.52942e-15 -2.87576e-14 0)
(-8.378e-15 -2.59499e-14 0)
(-1.02691e-14 -2.25263e-14 0)
(-1.12361e-14 -1.90167e-14 0)
(-1.14643e-14 -1.57693e-14 0)
(-1.11821e-14 -1.2949e-14 0)
(-1.05931e-14 -1.05931e-14 0)
(-9.84926e-15 -8.66952e-15 0)
(-1.44285e-13 -7.11815e-15 0)
(1.36515e-13 -6.91457e-15 0)
(8.25139e-15 -8.25139e-15 0)
(8.66952e-15 -9.84926e-15 0)
(8.91606e-15 -1.17263e-14 0)
(8.88603e-15 -1.38708e-14 0)
(8.45657e-15 -1.62178e-14 0)
(7.50961e-15 -1.86243e-14 0)
(5.97225e-15 -2.0856e-14 0)
(3.8661e-15 -2.26087e-14 0)
(1.34049e-15 -2.35811e-14 0)
(-1.34049e-15 -2.35811e-14 0)
(-3.8661e-15 -2.26087e-14 0)
(-5.97225e-15 -2.0856e-14 0)
(-7.50961e-15 -1.86243e-14 0)
(-8.45657e-15 -1.62178e-14 0)
(-8.88603e-15 -1.38708e-14 0)
(-8.91606e-15 -1.17263e-14 0)
(-8.66952e-15 -9.84926e-15 0)
(-8.25139e-15 -8.25139e-15 0)
(-1.36515e-13 -6.91457e-15 0)
(1.29119e-13 -1.29119e-13 0)
(6.91457e-15 -1.36515e-13 0)
(7.11815e-15 -1.44285e-13 0)
(7.16061e-15 -1.52303e-13 0)
(6.97276e-15 -1.60362e-13 0)
(6.48257e-15 -1.68161e-13 0)
(5.63086e-15 -1.75301e-13 0)
(4.3936e-15 -1.81302e-13 0)
(2.80431e-15 -1.85667e-13 0)
(9.65037e-16 -1.87972e-13 0)
(-9.65037e-16 -1.87972e-13 0)
(-2.80431e-15 -1.85667e-13 0)
(-4.3936e-15 -1.81302e-13 0)
(-5.63086e-15 -1.75301e-13 0)
(-6.48257e-15 -1.68161e-13 0)
(-6.97276e-15 -1.60362e-13 0)
(-7.16061e-15 -1.52303e-13 0)
(-7.11815e-15 -1.44285e-13 0)
(-6.91457e-15 -1.36515e-13 0)
(-1.29119e-13 -1.29119e-13 0)
)
;

boundaryField
{
    movingWall
    {
        type            fixedValue;
        value           uniform (1 0 0);
    }
    fixedWalls
    {
        type            fixedValue;
        value           uniform (0 0 0);
    }
    frontAndBack
    {
        type            empty;
    }
}


// ************************************************************************* //
