/*--------------------------------*- C++ -*----------------------------------*\
| =========                 |                                                 |
| \\      /  F ield         | OpenFOAM: The Open Source CFD Toolbox           |
|  \\    /   O peration     | Version:  v2012                                 |
|   \\  /    A nd           | Website:  www.openfoam.com                      |
|    \\/     M anipulation  |                                                 |
\*---------------------------------------------------------------------------*/
FoamFile
{
    version     2.0;
    format      ascii;
    class       volVectorField;
    location    "4.5";
    object      U;
}
// * * * * * * * * * * * * * * * * * * * * * * * * * * * * * * * * * * * * * //

dimensions      [0 1 -1 0 0 0 0];


internalField   nonuniform List<vector> 
400
(
(1.07205e-11 1.07205e-11 0)
(5.74105e-13 1.13346e-11 0)
(5.91008e-13 1.19797e-11 0)
(5.94534e-13 1.26454e-11 0)
(5.78937e-13 1.33146e-11 0)
(5.38237e-13 1.39621e-11 0)
(4.67521e-13 1.45549e-11 0)
(3.64794e-13 1.50532e-11 0)
(2.32837e-13 1.54156e-11 0)
(8.01254e-14 1.5607e-11 0)
(-8.01254e-14 1.5607e-11 0)
(-2.32837e-13 1.54156e-11 0)
(-3.64794e-13 1.50532e-11 0)
(-4.67521e-13 1.45549e-11 0)
(-5.38237e-13 1.39621e-11 0)
(-5.78937e-13 1.33146e-11 0)
(-5.94534e-13 1.26454e-11 0)
(-5.91008e-13 1.19797e-11 0)
(-5.74105e-13 1.13346e-11 0)
(-1.07205e-11 1.07205e-11 0)
(1.13346e-11 5.74105e-13 0)
(6.85099e-13 6.85099e-13 0)
(7.19815e-13 8.17768e-13 0)
(7.40285e-13 9.73614e-13 0)
(7.37792e-13 1.15166e-12 0)
(7.02135e-13 1.34654e-12 0)
(6.2351e-13 1.54635e-12 0)
(4.95866e-13 1.73164e-12 0)
(3.20996e-13 1.87716e-12 0)
(1.11298e-13 1.9579e-12 0)
(-1.11298e-13 1.9579e-12 0)
(-3.20996e-13 1.87716e-12 0)
(-4.95866e-13 1.73164e-12 0)
(-6.2351e-13 1.54635e-12 0)
(-7.02135e-13 1.34654e-12 0)
(-7.37792e-13 1.15166e-12 0)
(-7.40285e-13 9.73614e-13 0)
(-7.19815e-13 8.17768e-13 0)
(-6.85099e-13 6.85099e-13 0)
(-1.13346e-11 5.74105e-13 0)
(1.19797e-11 5.91008e-13 0)
(8.17768e-13 7.19815e-13 0)
(8.79523e-13 8.79523e-13 0)
(9.28431e-13 1.07513e-12 0)
(9.51858e-13 1.3093e-12 0)
(9.32918e-13 1.57893e-12 0)
(8.52623e-13 1.87032e-12 0)
(6.95611e-13 2.15458e-12 0)
(4.59099e-13 2.3877e-12 0)
(1.60861e-13 2.5209e-12 0)
(-1.60861e-13 2.5209e-12 0)
(-4.59099e-13 2.3877e-12 0)
(-6.95611e-13 2.15458e-12 0)
(-8.52623e-13 1.87032e-12 0)
(-9.32918e-13 1.57893e-12 0)
(-9.51858e-13 1.3093e-12 0)
(-9.28431e-13 1.07513e-12 0)
(-8.79523e-13 8.79523e-13 0)
(-8.17768e-13 7.19815e-13 0)
(-1.19797e-11 5.91008e-13 0)
(1.26454e-11 5.94534e-13 0)
(9.73614e-13 7.40285e-13 0)
(1.07513e-12 9.28431e-13 0)
(1.17006e-12 1.17006e-12 0)
(1.24158e-12 1.47571e-12 0)
(1.26315e-12 1.85038e-12 0)
(1.19916e-12 2.28385e-12 0)
(1.01325e-12 2.73696e-12 0)
(6.87315e-13 3.13228e-12 0)
(2.445e-13 3.36832e-12 0)
(-2.445e-13 3.36832e-12 0)
(-6.87315e-13 3.13228e-12 0)
(-1.01325e-12 2.73696e-12 0)
(-1.19916e-12 2.28385e-12 0)
(-1.26315e-12 1.85038e-12 0)
(-1.24158e-12 1.47571e-12 0)
(-1.17006e-12 1.17006e-12 0)
(-1.07513e-12 9.28431e-13 0)
(-9.73614e-13 7.40285e-13 0)
(-1.26454e-11 5.94534e-13 0)
(1.33146e-11 5.78937e-13 0)
(1.15166e-12 7.37792e-13 0)
(1.3093e-12 9.51858e-13 0)
(1.47571e-12 1.24158e-12 0)
(1.63218e-12 1.63218e-12 0)
(1.74106e-12 2.14887e-12 0)
(1.7392e-12 2.80179e-12 0)
(1.54404e-12 3.55289e-12 0)
(1.09046e-12 4.27143e-12 0)
(3.96896e-13 4.7313e-12 0)
(-3.96896e-13 4.7313e-12 0)
(-1.09046e-12 4.27143e-12 0)
(-1.54404e-12 3.55289e-12 0)
(-1.7392e-12 2.80179e-12 0)
(-1.74106e-12 2.14887e-12 0)
(-1.63218e-12 1.63218e-12 0)
(-1.47571e-12 1.24158e-12 0)
(-1.3093e-12 9.51858e-13 0)
(-1.15166e-12 7.37792e-13 0)
(-1.33146e-11 5.78937e-13 0)
(1.39621e-11 5.38237e-13 0)
(1.34654e-12 7.02135e-13 0)
(1.57893e-12 9.32918e-13 0)
(1.85038e-12 1.26315e-12 0)
(2.14887e-12 1.74106e-12 0)
(2.43276e-12 2.43276e-12 0)
(2.60318e-12 3.41068e-12 0)
(2.48289e-12 4.69652e-12 0)
(1.86572e-12 6.11494e-12 0)
(7.04368e-13 7.13665e-12 0)
(-7.04368e-13 7.13665e-12 0)
(-1.86572e-12 6.11494e-12 0)
(-2.48289e-12 4.69652e-12 0)
(-2.60318e-12 3.41068e-12 0)
(-2.43276e-12 2.43276e-12 0)
(-2.14887e-12 1.74106e-12 0)
(-1.85038e-12 1.26315e-12 0)
(-1.57893e-12 9.32918e-13 0)
(-1.34654e-12 7.02135e-13 0)
(-1.39621e-11 5.38237e-13 0)
(1.45549e-11 4.67521e-13 0)
(1.54635e-12 6.2351e-13 0)
(1.87032e-12 8.52623e-13 0)
(2.28385e-12 1.19916e-12 0)
(2.80179e-12 1.7392e-12 0)
(3.41068e-12 2.60318e-12 0)
(4.00296e-12 4.00296e-12 0)
(4.2483e-12 6.21201e-12 0)
(3.53059e-12 9.26895e-12 0)
(1.41861e-12 1.20172e-11 0)
(-1.41861e-12 1.20172e-11 0)
(-3.53059e-12 9.26895e-12 0)
(-4.2483e-12 6.21201e-12 0)
(-4.00296e-12 4.00296e-12 0)
(-3.41068e-12 2.60318e-12 0)
(-2.80179e-12 1.7392e-12 0)
(-2.28385e-12 1.19916e-12 0)
(-1.87032e-12 8.52623e-13 0)
(-1.54635e-12 6.2351e-13 0)
(-1.45549e-11 4.67521e-13 0)
(1.50532e-11 3.64794e-13 0)
(1.73164e-12 4.95866e-13 0)
(2.15458e-12 6.95611e-13 0)
(2.73696e-12 1.01325e-12 0)
(3.55289e-12 1.54404e-12 0)
(4.69652e-12 2.48289e-12 0)
(6.21201e-12 4.2483e-12 0)
(7.74888e-12 7.74888e-12 0)
(7.67088e-12 1.46414e-11 0)
(3.45258e-12 2.45164e-11 0)
(-3.45258e-12 2.45164e-11 0)
(-7.67088e-12 1.46414e-11 0)
(-7.74888e-12 7.74888e-12 0)
(-6.21201e-12 4.2483e-12 0)
(-4.69652e-12 2.48289e-12 0)
(-3.55289e-12 1.54404e-12 0)
(-2.73696e-12 1.01325e-12 0)
(-2.15458e-12 6.95611e-13 0)
(-1.73164e-12 4.95866e-13 0)
(-1.50532e-11 3.64794e-13 0)
(1.54156e-11 2.32837e-13 0)
(1.87716e-12 3.20996e-13 0)
(2.3877e-12 4.59099e-13 0)
(3.13228e-12 6.87315e-13 0)
(4.27143e-12 1.09046e-12 0)
(6.11494e-12 1.86572e-12 0)
(9.26895e-12 3.53059e-12 0)
(1.46414e-11 7.67088e-12 0)
(2.02981e-11 2.02981e-11 0)
(1.12936e-11 7.16659e-11 0)
(-1.12936e-11 7.16659e-11 0)
(-2.02981e-11 2.02981e-11 0)
(-1.46414e-11 7.67088e-12 0)
(-9.26895e-12 3.53059e-12 0)
(-6.11494e-12 1.86572e-12 0)
(-4.27143e-12 1.09046e-12 0)
(-3.13228e-12 6.87315e-13 0)
(-2.3877e-12 4.59099e-13 0)
(-1.87716e-12 3.20996e-13 0)
(-1.54156e-11 2.32837e-13 0)
(1.5607e-11 8.01254e-14 0)
(1.9579e-12 1.11298e-13 0)
(2.5209e-12 1.60861e-13 0)
(3.36832e-12 2.445e-13 0)
(4.7313e-12 3.96896e-13 0)
(7.13665e-12 7.04368e-13 0)
(1.20172e-11 1.41861e-12 0)
(2.45164e-11 3.45258e-12 0)
(7.16659e-11 1.12936e-11 0)
(5.48203e-11 5.48203e-11 0)
(-5.48203e-11 5.48203e-11 0)
(-7.16659e-11 1.12936e-11 0)
(-2.45164e-11 3.45258e-12 0)
(-1.20172e-11 1.41861e-12 0)
(-7.13665e-12 7.04368e-13 0)
(-4.7313e-12 3.96896e-13 0)
(-3.36832e-12 2.445e-13 0)
(-2.5209e-12 1.60861e-13 0)
(-1.9579e-12 1.11298e-13 0)
(-1.5607e-11 8.01254e-14 0)
(1.5607e-11 -8.01254e-14 0)
(1.9579e-12 -1.11298e-13 0)
(2.5209e-12 -1.60861e-13 0)
(3.36832e-12 -2.445e-13 0)
(4.7313e-12 -3.96896e-13 0)
(7.13665e-12 -7.04368e-13 0)
(1.20172e-11 -1.41861e-12 0)
(2.45164e-11 -3.45258e-12 0)
(7.16659e-11 -1.12936e-11 0)
(5.48203e-11 -5.48203e-11 0)
(-5.48203e-11 -5.48203e-11 0)
(-7.16659e-11 -1.12936e-11 0)
(-2.45164e-11 -3.45258e-12 0)
(-1.20172e-11 -1.41861e-12 0)
(-7.13665e-12 -7.04368e-13 0)
(-4.7313e-12 -3.96896e-13 0)
(-3.36832e-12 -2.445e-13 0)
(-2.5209e-12 -1.60861e-13 0)
(-1.9579e-12 -1.11298e-13 0)
(-1.5607e-11 -8.01254e-14 0)
(1.54156e-11 -2.32837e-13 0)
(1.87716e-12 -3.20996e-13 0)
(2.3877e-12 -4.59099e-13 0)
(3.13228e-12 -6.87315e-13 0)
(4.27143e-12 -1.09046e-12 0)
(6.11494e-12 -1.86572e-12 0)
(9.26895e-12 -3.53059e-12 0)
(1.46414e-11 -7.67088e-12 0)
(2.02981e-11 -2.02981e-11 0)
(1.12936e-11 -7.16659e-11 0)
(-1.12936e-11 -7.16659e-11 0)
(-2.02981e-11 -2.02981e-11 0)
(-1.46414e-11 -7.67088e-12 0)
(-9.26895e-12 -3.53059e-12 0)
(-6.11494e-12 -1.86572e-12 0)
(-4.27143e-12 -1.09046e-12 0)
(-3.13228e-12 -6.87315e-13 0)
(-2.3877e-12 -4.59099e-13 0)
(-1.87716e-12 -3.20996e-13 0)
(-1.54156e-11 -2.32837e-13 0)
(1.50532e-11 -3.64794e-13 0)
(1.73164e-12 -4.95866e-13 0)
(2.15458e-12 -6.95611e-13 0)
(2.73696e-12 -1.01325e-12 0)
(3.55289e-12 -1.54404e-12 0)
(4.69652e-12 -2.48289e-12 0)
(6.21201e-12 -4.2483e-12 0)
(7.74888e-12 -7.74888e-12 0)
(7.67088e-12 -1.46414e-11 0)
(3.45258e-12 -2.45164e-11 0)
(-3.45258e-12 -2.45164e-11 0)
(-7.67088e-12 -1.46414e-11 0)
(-7.74888e-12 -7.74888e-12 0)
(-6.21201e-12 -4.2483e-12 0)
(-4.69652e-12 -2.48289e-12 0)
(-3.55289e-12 -1.54404e-12 0)
(-2.73696e-12 -1.01325e-12 0)
(-2.15458e-12 -6.95611e-13 0)
(-1.73164e-12 -4.95866e-13 0)
(-1.50532e-11 -3.64794e-13 0)
(1.45549e-11 -4.67521e-13 0)
(1.54635e-12 -6.2351e-13 0)
(1.87032e-12 -8.52623e-13 0)
(2.28385e-12 -1.19916e-12 0)
(2.80179e-12 -1.7392e-12 0)
(3.41068e-12 -2.60318e-12 0)
(4.00296e-12 -4.00296e-12 0)
(4.2483e-12 -6.21201e-12 0)
(3.53059e-12 -9.26895e-12 0)
(1.41861e-12 -1.20172e-11 0)
(-1.41861e-12 -1.20172e-11 0)
(-3.53059e-12 -9.26895e-12 0)
(-4.2483e-12 -6.21201e-12 0)
(-4.00296e-12 -4.00296e-12 0)
(-3.41068e-12 -2.60318e-12 0)
(-2.80179e-12 -1.7392e-12 0)
(-2.28385e-12 -1.19916e-12 0)
(-1.87032e-12 -8.52623e-13 0)
(-1.54635e-12 -6.2351e-13 0)
(-1.45549e-11 -4.67521e-13 0)
(1.39621e-11 -5.38237e-13 0)
(1.34654e-12 -7.02135e-13 0)
(1.57893e-12 -9.32918e-13 0)
(1.85038e-12 -1.26315e-12 0)
(2.14887e-12 -1.74106e-12 0)
(2.43276e-12 -2.43276e-12 0)
(2.60318e-12 -3.41068e-12 0)
(2.48289e-12 -4.69652e-12 0)
(1.86572e-12 -6.11494e-12 0)
(7.04368e-13 -7.13665e-12 0)
(-7.04368e-13 -7.13665e-12 0)
(-1.86572e-12 -6.11494e-12 0)
(-2.48289e-12 -4.69652e-12 0)
(-2.60318e-12 -3.41068e-12 0)
(-2.43276e-12 -2.43276e-12 0)
(-2.14887e-12 -1.74106e-12 0)
(-1.85038e-12 -1.26315e-12 0)
(-1.57893e-12 -9.32918e-13 0)
(-1.34654e-12 -7.02135e-13 0)
(-1.39621e-11 -5.38237e-13 0)
(1.33146e-11 -5.78937e-13 0)
(1.15166e-12 -7.37792e-13 0)
(1.3093e-12 -9.51858e-13 0)
(1.47571e-12 -1.24158e-12 0)
(1.63218e-12 -1.63218e-12 0)
(1.74106e-12 -2.14887e-12 0)
(1.7392e-12 -2.80179e-12 0)
(1.54404e-12 -3.55289e-12 0)
(1.09046e-12 -4.27143e-12 0)
(3.96896e-13 -4.7313e-12 0)
(-3.96896e-13 -4.7313e-12 0)
(-1.09046e-12 -4.27143e-12 0)
(-1.54404e-12 -3.55289e-12 0)
(-1.7392e-12 -2.80179e-12 0)
(-1.74106e-12 -2.14887e-12 0)
(-1.63218e-12 -1.63218e-12 0)
(-1.47571e-12 -1.24158e-12 0)
(-1.3093e-12 -9.51858e-13 0)
(-1.15166e-12 -7.37792e-13 0)
(-1.33146e-11 -5.78937e-13 0)
(1.26454e-11 -5.94534e-13 0)
(9.73614e-13 -7.40285e-13 0)
(1.07513e-12 -9.28431e-13 0)
(1.17006e-12 -1.17006e-12 0)
(1.24158e-12 -1.47571e-12 0)
(1.26315e-12 -1.85038e-12 0)
(1.19916e-12 -2.28385e-12 0)
(1.01325e-12 -2.73696e-12 0)
(6.87315e-13 -3.13228e-12 0)
(2.445e-13 -3.36832e-12 0)
(-2.445e-13 -3.36832e-12 0)
(-6.87315e-13 -3.13228e-12 0)
(-1.01325e-12 -2.73696e-12 0)
(-1.19916e-12 -2.28385e-12 0)
(-1.26315e-12 -1.85038e-12 0)
(-1.24158e-12 -1.47571e-12 0)
(-1.17006e-12 -1.17006e-12 0)
(-1.07513e-12 -9.28431e-13 0)
(-9.73614e-13 -7.40285e-13 0)
(-1.26454e-11 -5.94534e-13 0)
(1.19797e-11 -5.91008e-13 0)
(8.17768e-13 -7.19815e-13 0)
(8.79523e-13 -8.79523e-13 0)
(9.28431e-13 -1.07513e-12 0)
(9.51858e-13 -1.3093e-12 0)
(9.32918e-13 -1.57893e-12 0)
(8.52623e-13 -1.87032e-12 0)
(6.95611e-13 -2.15458e-12 0)
(4.59099e-13 -2.3877e-12 0)
(1.60861e-13 -2.5209e-12 0)
(-1.60861e-13 -2.5209e-12 0)
(-4.59099e-13 -2.3877e-12 0)
(-6.95611e-13 -2.15458e-12 0)
(-8.52623e-13 -1.87032e-12 0)
(-9.32918e-13 -1.57893e-12 0)
(-9.51858e-13 -1.3093e-12 0)
(-9.28431e-13 -1.07513e-12 0)
(-8.79523e-13 -8.79523e-13 0)
(-8.17768e-13 -7.19815e-13 0)
(-1.19797e-11 -5.91008e-13 0)
(1.13346e-11 -5.74105e-13 0)
(6.85099e-13 -6.85099e-13 0)
(7.19815e-13 -8.17768e-13 0)
(7.40285e-13 -9.73614e-13 0)
(7.37792e-13 -1.15166e-12 0)
(7.02135e-13 -1.34654e-12 0)
(6.2351e-13 -1.54635e-12 0)
(4.95866e-13 -1.73164e-12 0)
(3.20996e-13 -1.87716e-12 0)
(1.11298e-13 -1.9579e-12 0)
(-1.11298e-13 -1.9579e-12 0)
(-3.20996e-13 -1.87716e-12 0)
(-4.95866e-13 -1.73164e-12 0)
(-6.2351e-13 -1.54635e-12 0)
(-7.02135e-13 -1.34654e-12 0)
(-7.37792e-13 -1.15166e-12 0)
(-7.40285e-13 -9.73614e-13 0)
(-7.19815e-13 -8.17768e-13 0)
(-6.85099e-13 -6.85099e-13 0)
(-1.13346e-11 -5.74105e-13 0)
(1.07205e-11 -1.07205e-11 0)
(5.74105e-13 -1.13346e-11 0)
(5.91008e-13 -1.19797e-11 0)
(5.94534e-13 -1.26454e-11 0)
(5.78937e-13 -1.33146e-11 0)
(5.38237e-13 -1.39621e-11 0)
(4.67521e-13 -1.45549e-11 0)
(3.64794e-13 -1.50532e-11 0)
(2.32837e-13 -1.54156e-11 0)
(8.01254e-14 -1.5607e-11 0)
(-8.01254e-14 -1.5607e-11 0)
(-2.32837e-13 -1.54156e-11 0)
(-3.64794e-13 -1.50532e-11 0)
(-4.67521e-13 -1.45549e-11 0)
(-5.38237e-13 -1.39621e-11 0)
(-5.78937e-13 -1.33146e-11 0)
(-5.94534e-13 -1.26454e-11 0)
(-5.91008e-13 -1.19797e-11 0)
(-5.74105e-13 -1.13346e-11 0)
(-1.07205e-11 -1.07205e-11 0)
)
;

boundaryField
{
    movingWall
    {
        type            fixedValue;
        value           uniform (1 0 0);
    }
    fixedWalls
    {
        type            fixedValue;
        value           uniform (0 0 0);
    }
    frontAndBack
    {
        type            empty;
    }
}


// ************************************************************************* //
