/*--------------------------------*- C++ -*----------------------------------*\
| =========                 |                                                 |
| \\      /  F ield         | OpenFOAM: The Open Source CFD Toolbox           |
|  \\    /   O peration     | Version:  v2012                                 |
|   \\  /    A nd           | Website:  www.openfoam.com                      |
|    \\/     M anipulation  |                                                 |
\*---------------------------------------------------------------------------*/
FoamFile
{
    version     2.0;
    format      ascii;
    class       volScalarField;
    location    "0.2";
    object      p;
}
// * * * * * * * * * * * * * * * * * * * * * * * * * * * * * * * * * * * * * //

dimensions      [0 2 -2 0 0 0 0];


internalField   nonuniform List<scalar> 
400
(
-0.489534
-0.492035
-0.495795
-0.498608
-0.499112
-0.496747
-0.491322
-0.483071
-0.472517
-0.460245
-0.447065
-0.434031
-0.422059
-0.411761
-0.403705
-0.398399
-0.395952
-0.395704
-0.396003
-0.393955
-0.487129
-0.489669
-0.493945
-0.497177
-0.497908
-0.495669
-0.490388
-0.482264
-0.471844
-0.459826
-0.446949
-0.434126
-0.422308
-0.412191
-0.404312
-0.399167
-0.396936
-0.39686
-0.396511
-0.390708
-0.483425
-0.485826
-0.490523
-0.494042
-0.494945
-0.492846
-0.487809
-0.48012
-0.470283
-0.458959
-0.446821
-0.434658
-0.423356
-0.413607
-0.405961
-0.400934
-0.398616
-0.397628
-0.393512
-0.376395
-0.480626
-0.483089
-0.488525
-0.492551
-0.493679
-0.491685
-0.486765
-0.479274
-0.469707
-0.458756
-0.447016
-0.435112
-0.423901
-0.414166
-0.40649
-0.401255
-0.398031
-0.393823
-0.379052
-0.329179
-0.480475
-0.483147
-0.489469
-0.494118
-0.495457
-0.493391
-0.488289
-0.4806
-0.470785
-0.459631
-0.447719
-0.435497
-0.423797
-0.413592
-0.405589
-0.39999
-0.395582
-0.386461
-0.350129
-0.180479
-0.484219
-0.487124
-0.494303
-0.499487
-0.50088
-0.498462
-0.492795
-0.484474
-0.473865
-0.461848
-0.44908
-0.435899
-0.423099
-0.411898
-0.403354
-0.398051
-0.395697
-0.393278
-0.380617
-0.331454
-0.492988
-0.495986
-0.50383
-0.509293
-0.510453
-0.507324
-0.500635
-0.491203
-0.479255
-0.465699
-0.451309
-0.436419
-0.421797
-0.408839
-0.398977
-0.393298
-0.392391
-0.394796
-0.395035
-0.379183
-0.507937
-0.510805
-0.518986
-0.524323
-0.524831
-0.520535
-0.512273
-0.501136
-0.487228
-0.471413
-0.45455
-0.437068
-0.419782
-0.404179
-0.391934
-0.384572
-0.383352
-0.387598
-0.393538
-0.389334
-0.53046
-0.532908
-0.540946
-0.545538
-0.544742
-0.538654
-0.528134
-0.51454
-0.497927
-0.479088
-0.458885
-0.437861
-0.416952
-0.397719
-0.38198
-0.371561
-0.368143
-0.371681
-0.379121
-0.378721
-0.56231
-0.5639
-0.571036
-0.573925
-0.57081
-0.562012
-0.548396
-0.531467
-0.511312
-0.488661
-0.464307
-0.438851
-0.413334
-0.38936
-0.368827
-0.353761
-0.34611
-0.346531
-0.352454
-0.352133
-0.605655
-0.605647
-0.61062
-0.610361
-0.603462
-0.590667
-0.572953
-0.551771
-0.527278
-0.500108
-0.470897
-0.440207
-0.409076
-0.379073
-0.352112
-0.330369
-0.316012
-0.310507
-0.312126
-0.309683
-0.663109
-0.660326
-0.661115
-0.65561
-0.642988
-0.624545
-0.601541
-0.575167
-0.545614
-0.513368
-0.478777
-0.442199
-0.404485
-0.367005
-0.331558
-0.300445
-0.276218
-0.261274
-0.255379
-0.248907
-0.737866
-0.730651
-0.724191
-0.710365
-0.689414
-0.663222
-0.633411
-0.600801
-0.565454
-0.527608
-0.487229
-0.444275
-0.399154
-0.352814
-0.306763
-0.26325
-0.225259
-0.196332
-0.178684
-0.165813
-0.834002
-0.820131
-0.801834
-0.775001
-0.741923
-0.705182
-0.666559
-0.626578
-0.584902
-0.54116
-0.494762
-0.445132
-0.392032
-0.335734
-0.277191
-0.218237
-0.161964
-0.113139
-0.0777498
-0.0553346
-0.956642
-0.932923
-0.895767
-0.848831
-0.798177
-0.747454
-0.697947
-0.649641
-0.601609
-0.552396
-0.500401
-0.444272
-0.383003
-0.316028
-0.243396
-0.165939
-0.086096
-0.00962552
0.0520145
0.0878694
-1.11143
-1.07308
-1.00644
-0.929436
-0.854306
-0.785856
-0.724172
-0.66732
-0.613117
-0.558984
-0.502248
-0.440584
-0.371989
-0.294721
-0.20734
-0.108797
0.000239161
0.113756
0.213005
0.26694
-1.30253
-1.24298
-1.13187
-1.01234
-0.905264
-0.814704
-0.739048
-0.674059
-0.615174
-0.55799
-0.498566
-0.433544
-0.359795
-0.274065
-0.172783
-0.0520887
0.090496
0.250575
0.401566
0.479735
-1.52749
-1.43914
-1.26446
-1.08871
-0.942941
-0.828965
-0.740207
-0.668746
-0.607222
-0.54928
-0.489706
-0.424116
-0.348194
-0.256992
-0.144525
-0.00365736
0.172581
0.385068
0.603224
0.713673
-1.76466
-1.64114
-1.38528
-1.14781
-0.963692
-0.828491
-0.729403
-0.654059
-0.592184
-0.535648
-0.478136
-0.414356
-0.338906
-0.2454
-0.12597
0.029189
0.231857
0.492
0.78549
0.933256
-1.97317
-1.82065
-1.48478
-1.19785
-0.985872
-0.8351
-0.727531
-0.647819
-0.58397
-0.526845
-0.469397
-0.405611
-0.329259
-0.233135
-0.108593
0.0554962
0.273981
0.564281
0.920417
1.09522
)
;

boundaryField
{
    movingWall
    {
        type            zeroGradient;
    }
    fixedWalls
    {
        type            zeroGradient;
    }
    frontAndBack
    {
        type            empty;
    }
}


// ************************************************************************* //
