/*--------------------------------*- C++ -*----------------------------------*\
| =========                 |                                                 |
| \\      /  F ield         | OpenFOAM: The Open Source CFD Toolbox           |
|  \\    /   O peration     | Version:  v2012                                 |
|   \\  /    A nd           | Website:  www.openfoam.com                      |
|    \\/     M anipulation  |                                                 |
\*---------------------------------------------------------------------------*/
FoamFile
{
    version     2.0;
    format      ascii;
    class       surfaceScalarField;
    location    "0.2";
    object      phi;
}
// * * * * * * * * * * * * * * * * * * * * * * * * * * * * * * * * * * * * * //

dimensions      [0 3 -1 0 0 0 0];
oriented        oriented;


internalField   nonuniform List<scalar> 
760
(
-2.20164e-08
2.07997e-08
-7.02048e-08
1.08733e-07
-1.61146e-07
2.0255e-07
-2.89244e-07
2.75108e-07
-4.37975e-07
3.14987e-07
-5.90199e-07
3.20045e-07
-7.3058e-07
2.93756e-07
-8.46789e-07
2.41536e-07
-9.29989e-07
1.70145e-07
-9.73726e-07
8.74576e-08
-9.74815e-07
1.42781e-10
-9.35419e-07
-8.58828e-08
-8.61853e-07
-1.63395e-07
-7.61977e-07
-2.25246e-07
-6.45488e-07
-2.66942e-07
-5.24775e-07
-2.87401e-07
-4.11297e-07
-2.89297e-07
-3.06573e-07
-2.78368e-07
-1.78344e-07
-2.54403e-07
-1.76997e-07
-1.16626e-07
7.03845e-08
-2.82907e-07
2.7489e-07
-5.34398e-07
4.74955e-07
-8.62058e-07
6.23698e-07
-1.23035e-06
7.0186e-07
-1.60125e-06
7.06537e-07
-1.94051e-06
6.45109e-07
-2.21956e-06
5.29581e-07
-2.41767e-06
3.73908e-07
-2.52198e-06
1.93762e-07
-2.52697e-06
3.71951e-09
-2.43646e-06
-1.82651e-07
-2.26411e-06
-3.50194e-07
-2.03015e-06
-4.83804e-07
-1.75917e-06
-5.72932e-07
-1.47851e-06
-6.15057e-07
-1.20823e-06
-6.18767e-07
-9.37025e-07
-6.04198e-07
-5.57456e-07
-5.86257e-07
-4.74522e-07
-2.2799e-07
1.7131e-07
-5.17264e-07
5.4545e-07
-9.16354e-07
8.7797e-07
-1.41419e-06
1.11354e-06
-1.96102e-06
1.2293e-06
-2.50376e-06
1.22424e-06
-2.99516e-06
1.1112e-06
-3.3966e-06
9.09979e-07
-3.68004e-06
6.43102e-07
-3.82866e-06
3.3577e-07
-3.83599e-06
1.24719e-08
-3.7073e-06
-3.0347e-07
-3.46137e-06
-5.86679e-07
-3.12848e-06
-8.11065e-07
-2.74786e-06
-9.56446e-07
-2.36428e-06
-1.01573e-06
-2.01021e-06
-1.0024e-06
-1.65542e-06
-9.58895e-07
-1.04136e-06
-9.58069e-07
-9.98296e-07
-3.39794e-07
3.28494e-07
-7.48737e-07
9.33568e-07
-1.28629e-06
1.43019e-06
-1.9379e-06
1.76522e-06
-2.64e-06
1.91725e-06
-3.32733e-06
1.89041e-06
-3.94336e-06
1.70567e-06
-4.44253e-06
1.39254e-06
-4.79221e-06
9.83428e-07
-4.97385e-06
5.14884e-07
-4.98071e-06
2.34595e-08
-4.81812e-06
-4.55631e-07
-4.50786e-06
-8.84415e-07
-4.08969e-06
-1.22234e-06
-3.62034e-06
-1.4338e-06
-3.17114e-06
-1.49689e-06
-2.80822e-06
-1.41124e-06
-2.51269e-06
-1.20959e-06
-1.72052e-06
-9.72306e-07
-7.97359e-07
-4.4875e-07
5.38351e-07
-9.72984e-07
1.43383e-06
-1.64153e-06
2.12453e-06
-2.43545e-06
2.5687e-06
-3.27743e-06
2.75283e-06
-4.09108e-06
2.69025e-06
-4.8129e-06
2.41309e-06
-5.39297e-06
1.96312e-06
-5.79547e-06
1.38374e-06
-6.00111e-06
7.2323e-07
-6.00327e-06
3.14144e-08
-5.80575e-06
-6.42727e-07
-5.4299e-06
-1.24733e-06
-4.92124e-06
-1.72603e-06
-4.35154e-06
-2.02365e-06
-3.82217e-06
-2.09365e-06
-3.46763e-06
-1.90278e-06
-3.47131e-06
-1.43717e-06
-2.70427e-06
-7.01703e-07
2.38838e-07
-5.56232e-07
7.97692e-07
-1.19269e-06
2.0401e-06
-1.98607e-06
2.95241e-06
-2.91254e-06
3.51245e-06
-3.88156e-06
3.72164e-06
-4.80647e-06
3.60769e-06
-5.61872e-06
3.21715e-06
-6.26639e-06
2.60655e-06
-6.7117e-06
1.83176e-06
-6.93443e-06
9.52567e-07
-6.92786e-06
3.15708e-08
-6.69294e-06
-8.6803e-07
-6.24617e-06
-1.68024e-06
-5.6296e-06
-2.33392e-06
-4.91163e-06
-2.75554e-06
-4.18187e-06
-2.87522e-06
-3.53084e-06
-2.63321e-06
-2.96765e-06
-1.99274e-06
-1.93988e-06
-9.53531e-07
3.32855e-07
-6.65439e-07
1.10608e-06
-1.41273e-06
2.74977e-06
-2.3249e-06
3.9076e-06
-3.3733e-06
4.58597e-06
-4.45536e-06
4.80906e-06
-5.47563e-06
4.6255e-06
-6.36228e-06
4.10002e-06
-7.06414e-06
3.30616e-06
-7.54314e-06
2.31394e-06
-7.77806e-06
1.19439e-06
-7.76149e-06
2.0997e-08
-7.49132e-06
-1.13042e-06
-6.97735e-06
-2.18069e-06
-6.25338e-06
-3.04561e-06
-5.37893e-06
-3.63624e-06
-4.4337e-06
-3.86387e-06
-3.49879e-06
-3.65104e-06
-2.60057e-06
-2.95467e-06
-1.50151e-06
-1.8035e-06
-4.09694e-07
-7.79146e-07
1.46549e-06
-1.63716e-06
3.56246e-06
-2.66107e-06
4.98384e-06
-3.81764e-06
5.77595e-06
-4.99431e-06
5.99538e-06
-6.08949e-06
5.72003e-06
-7.03034e-06
5.03769e-06
-7.76929e-06
4.0406e-06
-8.27083e-06
2.81423e-06
-8.51365e-06
1.44031e-06
-8.48932e-06
4.95548e-10
-8.19297e-06
-1.42037e-06
-7.62829e-06
-2.73271e-06
-6.81986e-06
-3.84069e-06
-5.81742e-06
-4.64057e-06
-4.69564e-06
-5.02369e-06
-3.54448e-06
-4.88834e-06
-2.43673e-06
-4.16217e-06
-1.29479e-06
-2.84212e-06
-1.03668e-06
-8.99413e-07
1.87913e-06
-1.86853e-06
4.47684e-06
-2.99467e-06
6.17016e-06
-4.23979e-06
7.06114e-06
-5.48422e-06
7.25097e-06
-6.62471e-06
6.85703e-06
-7.59106e-06
5.99661e-06
-8.34253e-06
4.7819e-06
-8.84992e-06
3.31378e-06
-9.09445e-06
1.68306e-06
-9.06741e-06
-2.40085e-08
-8.7614e-06
-1.71872e-06
-8.1746e-06
-3.30591e-06
-7.32223e-06
-4.68059e-06
-6.2432e-06
-5.72362e-06
-5.00554e-06
-6.3016e-06
-3.70619e-06
-6.27668e-06
-2.45323e-06
-5.52453e-06
-1.24737e-06
-3.97591e-06
-1.62339e-06
-1.02786e-06
2.34993e-06
-2.10756e-06
5.48788e-06
-3.32117e-06
7.44742e-06
-4.6254e-06
8.40884e-06
-5.89724e-06
8.53369e-06
-7.03862e-06
7.99024e-06
-7.98822e-06
6.93268e-06
-8.71629e-06
5.49428e-06
-9.20423e-06
3.78964e-06
-9.43982e-06
1.91519e-06
-9.41613e-06
-4.31586e-08
-9.12386e-06
-1.99914e-06
-8.55539e-06
-3.85846e-06
-7.71503e-06
-5.5115e-06
-6.62711e-06
-6.8245e-06
-5.34567e-06
-7.63483e-06
-3.96302e-06
-7.7566e-06
-2.60356e-06
-6.99581e-06
-1.30547e-06
-5.19369e-06
-2.22367e-06
-1.16485e-06
2.87954e-06
-2.35096e-06
6.58518e-06
-3.62709e-06
8.78599e-06
-4.94536e-06
9.77183e-06
-6.18516e-06
9.78547e-06
-7.26275e-06
9.05823e-06
-8.13484e-06
7.78794e-06
-8.78874e-06
6.12997e-06
-9.22124e-06
4.20904e-06
-9.43122e-06
2.12196e-06
-9.4164e-06
-5.18085e-08
-9.16663e-06
-2.2356e-06
-8.66763e-06
-4.34361e-06
-7.9096e-06
-6.26806e-06
-6.89608e-06
-7.86468e-06
-5.65636e-06
-8.9412e-06
-4.26183e-06
-9.25569e-06
-2.83305e-06
-8.52926e-06
-1.42619e-06
-6.48936e-06
-2.86787e-06
-1.30592e-06
3.46747e-06
-2.5854e-06
7.74994e-06
-3.88208e-06
1.01411e-05
-5.14643e-06
1.10821e-05
-6.27008e-06
1.09245e-05
-7.19519e-06
9.97654e-06
-7.90784e-06
8.48341e-06
-8.41995e-06
6.62281e-06
-8.74886e-06
4.52383e-06
-8.90894e-06
2.27615e-06
-8.90566e-06
-5.42195e-08
-8.72952e-06
-2.40738e-06
-8.35897e-06
-4.71379e-06
-7.76674e-06
-6.87575e-06
-6.92789e-06
-8.74651e-06
-5.83434e-06
-1.01106e-05
-4.51845e-06
-1.06705e-05
-3.07604e-06
-1.00503e-05
-1.5697e-06
-7.83424e-06
-3.56575e-06
-1.43464e-06
4.1079e-06
-2.7766e-06
8.94548e-06
-4.02695e-06
1.14405e-05
-5.13894e-06
1.22387e-05
-6.03252e-06
1.18362e-05
-6.69071e-06
1.06324e-05
-7.14099e-06
8.9188e-06
-7.4281e-06
6.89143e-06
-7.59421e-06
4.6759e-06
-7.67187e-06
2.34534e-06
-7.67686e-06
-5.58263e-08
-7.60227e-06
-2.49104e-06
-7.42006e-06
-4.91381e-06
-7.08433e-06
-7.24566e-06
-6.5366e-06
-9.3494e-06
-5.71952e-06
-1.10005e-05
-4.60609e-06
-1.18568e-05
-3.24298e-06
-1.14418e-05
-1.68808e-06
-9.16385e-06
-4.30535e-06
-1.51045e-06
4.77991e-06
-2.84996e-06
1.00976e-05
-3.95179e-06
1.25638e-05
-4.77486e-06
1.30961e-05
-5.2909e-06
1.23718e-05
-5.54306e-06
1.0892e-05
-5.61125e-06
8.98647e-06
-5.57986e-06
6.85527e-06
-5.51872e-06
4.60965e-06
-5.47751e-06
2.29856e-06
-5.48161e-06
-6.11851e-08
-5.52828e-06
-2.46138e-06
-5.5862e-06
-4.88415e-06
-5.59467e-06
-7.27947e-06
-5.46312e-06
-9.53504e-06
-5.07834e-06
-1.14379e-05
-4.33365e-06
-1.26242e-05
-3.19651e-06
-1.25278e-05
-1.70694e-06
-1.03576e-05
-5.04262e-06
-1.44501e-06
5.42732e-06
-2.65136e-06
1.10643e-05
-3.44937e-06
1.33199e-05
-3.80161e-06
1.34574e-05
-3.76117e-06
1.23594e-05
-3.45458e-06
1.06176e-05
-3.02128e-06
8.58405e-06
-2.58426e-06
6.44342e-06
-2.23836e-06
4.27811e-06
-2.0461e-06
2.10753e-06
-2.03806e-06
-8.01375e-08
-2.21503e-06
-2.30572e-06
-2.54746e-06
-4.58261e-06
-2.96985e-06
-6.89665e-06
-3.37063e-06
-9.17532e-06
-3.58479e-06
-1.12412e-05
-3.41264e-06
-1.27427e-05
-2.71097e-06
-1.30614e-05
-1.49475e-06
-1.12135e-05
-5.68488e-06
-1.04756e-06
5.92433e-06
-1.86329e-06
1.15933e-05
-2.12499e-06
1.34227e-05
-1.78414e-06
1.30749e-05
-1.00181e-06
1.16199e-05
-3.56001e-09
9.69857e-06
1.01265e-06
7.65064e-06
1.89969e-06
5.62686e-06
2.55514e-06
3.67045e-06
2.91482e-06
1.76908e-06
2.94778e-06
-1.14061e-07
2.64924e-06
-2.0236e-06
2.03987e-06
-4.00062e-06
1.1753e-06
-6.06691e-06
1.67669e-07
-8.19656e-06
-7.85714e-07
-1.02671e-05
-1.39815e-06
-1.19806e-05
-1.40001e-06
-1.27388e-05
-8.06538e-07
-1.1439e-05
-6.07603e-06
9.95474e-08
6.02569e-06
1.59203e-07
1.12713e-05
7.52095e-07
1.24783e-05
2.00107e-06
1.16768e-05
3.63947e-06
1.00141e-05
5.36758e-06
8.10165e-06
6.95823e-06
6.21867e-06
8.26152e-06
4.46509e-06
9.18838e-06
2.84684e-06
9.69133e-06
1.32779e-06
9.74915e-06
-1.43955e-07
9.35485e-06
-1.62589e-06
8.51363e-06
-3.17539e-06
7.25544e-06
-4.83886e-06
5.6658e-06
-6.62865e-06
3.93415e-06
-8.48148e-06
2.39081e-06
-1.01895e-05
1.40156e-06
-1.12705e-05
8.28399e-07
-1.0671e-05
-5.97636e-06
2.92636e-06
5.36474e-06
4.68092e-06
9.57236e-06
6.45596e-06
1.00901e-05
8.69351e-06
9.08292e-06
1.11076e-05
7.53756e-06
1.33938e-05
5.92403e-06
1.53567e-05
4.42978e-06
1.68894e-05
3.10376e-06
1.79428e-05
1.92972e-06
1.85004e-05
8.65413e-07
1.85585e-05
-1.40198e-07
1.81108e-05
-1.14201e-06
1.7146e-05
-2.19633e-06
1.56605e-05
-3.35339e-06
1.36895e-05
-4.64147e-06
1.13599e-05
-6.04148e-06
8.95628e-06
-7.44411e-06
6.83768e-06
-8.55312e-06
4.37829e-06
-8.59756e-06
-5.10226e-06
9.64653e-06
3.31736e-06
1.41022e-05
5.7362e-06
1.70467e-05
5.83394e-06
1.98927e-05
5.11979e-06
2.25518e-05
4.16259e-06
2.48547e-05
3.21139e-06
2.67092e-05
2.35951e-06
2.80851e-05
1.6249e-06
2.89872e-05
9.92205e-07
2.94334e-05
4.33653e-07
2.94374e-05
-8.27509e-08
2.8996e-05
-5.91274e-07
2.80886e-05
-1.12721e-06
2.6687e-05
-1.7223e-06
2.47748e-05
-2.39682e-06
2.23823e-05
-3.15013e-06
1.96567e-05
-3.94389e-06
1.68266e-05
-4.65626e-06
1.20086e-05
-4.92415e-06
-3.07675e-06
2.64205e-05
3.28322e-05
3.54284e-05
3.74148e-05
3.90277e-05
4.02963e-05
4.12408e-05
4.18902e-05
4.22759e-05
4.24245e-05
4.23504e-05
4.20519e-05
4.15131e-05
4.07082e-05
3.96052e-05
3.8177e-05
3.64445e-05
3.45748e-05
2.91355e-05
)
;

boundaryField
{
    movingWall
    {
        type            calculated;
        value           uniform 0;
    }
    fixedWalls
    {
        type            calculated;
        value           uniform 0;
    }
    frontAndBack
    {
        type            empty;
        value           nonuniform List<scalar> 0();
    }
}


// ************************************************************************* //
