/*--------------------------------*- C++ -*----------------------------------*\
| =========                 |                                                 |
| \\      /  F ield         | OpenFOAM: The Open Source CFD Toolbox           |
|  \\    /   O peration     | Version:  v2012                                 |
|   \\  /    A nd           | Website:  www.openfoam.com                      |
|    \\/     M anipulation  |                                                 |
\*---------------------------------------------------------------------------*/
FoamFile
{
    version     2.0;
    format      ascii;
    class       volVectorField;
    location    "0.2";
    object      U;
}
// * * * * * * * * * * * * * * * * * * * * * * * * * * * * * * * * * * * * * //

dimensions      [0 1 -1 0 0 0 0];


internalField   nonuniform List<vector> 
400
(
(-0.000162469 0.000145649 0)
(-0.000718186 0.000961895 0)
(-0.00209001 0.001876 0)
(-0.00435585 0.00260058 0)
(-0.00721391 0.00300785 0)
(-0.0103051 0.00307353 0)
(-0.0133029 0.00283154 0)
(-0.0159203 0.00233035 0)
(-0.0179512 0.00163833 0)
(-0.0192483 0.000838692 0)
(-0.0197007 -5.50133e-06 0)
(-0.0192919 -0.000841021 0)
(-0.0181248 -0.00159464 0)
(-0.0163493 -0.00219357 0)
(-0.0141298 -0.00259666 0)
(-0.0116897 -0.00279402 0)
(-0.00930128 -0.00280029 0)
(-0.0071506 -0.00264653 0)
(-0.00511232 -0.00230314 0)
(-0.00202143 -0.00145342 0)
(-0.00106251 0.000686337 0)
(-0.00360254 0.00338744 0)
(-0.00771372 0.00622599 0)
(-0.0136622 0.00840372 0)
(-0.0208201 0.00959164 0)
(-0.028394 0.00972828 0)
(-0.0356558 0.00891871 0)
(-0.0419646 0.0073311 0)
(-0.0468179 0.00516746 0)
(-0.0498889 0.00265961 0)
(-0.0509901 1.12126e-05 0)
(-0.0500886 -0.00259429 0)
(-0.04737 -0.00494115 0)
(-0.0431945 -0.00681628 0)
(-0.0380114 -0.008081 0)
(-0.0323555 -0.00870203 0)
(-0.0267848 -0.00877157 0)
(-0.0215442 -0.0084882 0)
(-0.0159368 -0.00787298 0)
(-0.00636145 -0.00562646 0)
(-0.00216061 0.00212904 0)
(-0.00695901 0.00760816 0)
(-0.0137315 0.0127722 0)
(-0.0229226 0.0165442 0)
(-0.0336449 0.0184828 0)
(-0.044796 0.0185332 0)
(-0.0553544 0.0168857 0)
(-0.0644522 0.0138522 0)
(-0.0714118 0.00978887 0)
(-0.0757896 0.00509086 0)
(-0.0773568 0.000137568 0)
(-0.0760829 -0.00471176 0)
(-0.0722091 -0.00906661 0)
(-0.0662457 -0.0125359 0)
(-0.0588933 -0.0148363 0)
(-0.0510211 -0.0159003 0)
(-0.0435503 -0.0159791 0)
(-0.0368581 -0.0156797 0)
(-0.0293587 -0.0155773 0)
(-0.0122956 -0.0133544 0)
(-0.00327623 0.00472334 0)
(-0.0103155 0.0142098 0)
(-0.019634 0.0223466 0)
(-0.0318178 0.0279973 0)
(-0.0456982 0.0306892 0)
(-0.0599018 0.0304366 0)
(-0.0731915 0.0275624 0)
(-0.0845428 0.022547 0)
(-0.0931585 0.0159352 0)
(-0.0985299 0.00833995 0)
(-0.100424 0.000361308 0)
(-0.0988045 -0.00742703 0)
(-0.0939202 -0.0144005 0)
(-0.0863943 -0.0199067 0)
(-0.0771932 -0.0234216 0)
(-0.0676203 -0.0247289 0)
(-0.0592251 -0.0241167 0)
(-0.0531036 -0.0226761 0)
(-0.0474039 -0.0227455 0)
(-0.0214168 -0.0265774 0)
(-0.00436725 0.00841643 0)
(-0.0135828 0.0231329 0)
(-0.0253366 0.0348612 0)
(-0.0403247 0.0426116 0)
(-0.0570934 0.0460007 0)
(-0.074004 0.0451797 0)
(-0.0896391 0.0406646 0)
(-0.102877 0.0331546 0)
(-0.112842 0.0234019 0)
(-0.118977 0.0122554 0)
(-0.121067 0.000577071 0)
(-0.119064 -0.0107982 0)
(-0.113166 -0.020976 0)
(-0.10403 -0.0289868 0)
(-0.09282 -0.0339305 0)
(-0.0812417 -0.0351466 0)
(-0.0716451 -0.032333 0)
(-0.0670601 -0.0257076 0)
(-0.0717924 -0.0161468 0)
(-0.0363785 -0.00531697 0)
(-0.00544736 0.0131176 0)
(-0.0168019 0.0342205 0)
(-0.0309055 0.0501201 0)
(-0.0485373 0.0601364 0)
(-0.0679645 0.0641126 0)
(-0.087298 0.0624301 0)
(-0.104961 0.0558592 0)
(-0.119788 0.0453704 0)
(-0.130868 0.0319477 0)
(-0.1376 0.0166738 0)
(-0.139777 0.000679504 0)
(-0.137337 -0.0149109 0)
(-0.130381 -0.0289172 0)
(-0.119466 -0.0400543 0)
(-0.105718 -0.0470153 0)
(-0.0907477 -0.0485993 0)
(-0.0765272 -0.0437781 0)
(-0.0647065 -0.0317792 0)
(-0.0539994 -0.0119213 0)
(-0.0235958 0.0148705 0)
(-0.00655381 0.0187901 0)
(-0.0200638 0.0473836 0)
(-0.0364453 0.0679762 0)
(-0.0565506 0.0803615 0)
(-0.0783815 0.084753 0)
(-0.0998329 0.0818774 0)
(-0.119192 0.0728267 0)
(-0.135299 0.0588917 0)
(-0.147267 0.0413227 0)
(-0.154459 0.0214289 0)
(-0.156663 0.00058333 0)
(-0.153796 -0.0198103 0)
(-0.145856 -0.0382925 0)
(-0.133238 -0.0533025 0)
(-0.116898 -0.0632063 0)
(-0.0982597 -0.0664096 0)
(-0.0790883 -0.0615501 0)
(-0.0608634 -0.0479302 0)
(-0.0431594 -0.0262199 0)
(-0.0169009 -0.00155625 0)
(-0.00771833 0.025453 0)
(-0.0234475 0.0626072 0)
(-0.0420388 0.0883278 0)
(-0.0644039 0.103077 0)
(-0.0883015 0.107609 0)
(-0.111471 0.103143 0)
(-0.132109 0.091174 0)
(-0.149105 0.0733546 0)
(-0.161667 0.0512351 0)
(-0.169167 0.0263468 0)
(-0.171379 0.000256549 0)
(-0.168194 -0.0254063 0)
(-0.159525 -0.0489353 0)
(-0.145607 -0.0685219 0)
(-0.127188 -0.0822434 0)
(-0.105509 -0.0881453 0)
(-0.0823166 -0.0844916 0)
(-0.0594625 -0.0702566 0)
(-0.0380068 -0.0459201 0)
(-0.0137849 -0.0148315 0)
(-0.00896484 0.0331664 0)
(-0.0270117 0.0798913 0)
(-0.0477296 0.111026 0)
(-0.0720573 0.127961 0)
(-0.0975342 0.132206 0)
(-0.121835 0.125659 0)
(-0.143154 0.110333 0)
(-0.160489 0.0882694 0)
(-0.173212 0.0613342 0)
(-0.180784 0.0312655 0)
(-0.182994 -0.000236727 0)
(-0.179703 -0.0314085 0)
(-0.170753 -0.0603731 0)
(-0.15623 -0.0851056 0)
(-0.136659 -0.103379 0)
(-0.113069 -0.112802 0)
(-0.0871521 -0.111042 0)
(-0.0610957 -0.09623 0)
(-0.0370336 -0.0677647 0)
(-0.0128612 -0.0266358 0)
(-0.010315 0.0419986 0)
(-0.0307992 0.0991822 0)
(-0.0535032 0.135781 0)
(-0.0793436 0.154485 0)
(-0.105672 0.157833 0)
(-0.130217 0.148623 0)
(-0.151328 0.129531 0)
(-0.168201 0.103006 0)
(-0.180451 0.0712169 0)
(-0.187719 0.0360568 0)
(-0.189874 -0.000723612 0)
(-0.186771 -0.0373404 0)
(-0.178184 -0.0718632 0)
(-0.164032 -0.102118 0)
(-0.144569 -0.125566 0)
(-0.120516 -0.139262 0)
(-0.0933112 -0.140025 0)
(-0.0652096 -0.124751 0)
(-0.0389327 -0.0912717 0)
(-0.0132861 -0.0383 0)
(-0.0117806 0.0519985 0)
(-0.0348133 0.120333 0)
(-0.0592252 0.162116 0)
(-0.0858584 0.181869 0)
(-0.111956 0.183515 0)
(-0.13545 0.170987 0)
(-0.155059 0.147776 0)
(-0.170334 0.116765 0)
(-0.181215 0.0803688 0)
(-0.187634 0.0405508 0)
(-0.189615 -0.00100273 0)
(-0.187041 -0.042625 0)
(-0.179624 -0.0824753 0)
(-0.167081 -0.118342 0)
(-0.149303 -0.147414 0)
(-0.126541 -0.166131 0)
(-0.099714 -0.170239 0)
(-0.0707591 -0.155081 0)
(-0.0425627 -0.116476 0)
(-0.0144848 -0.0506467 0)
(-0.0133219 0.063183 0)
(-0.038915 0.143074 0)
(-0.0645011 0.189324 0)
(-0.0907821 0.209005 0)
(-0.115075 0.207904 0)
(-0.135728 0.191342 0)
(-0.15208 0.163741 0)
(-0.164234 0.128434 0)
(-0.172564 0.0879927 0)
(-0.17739 0.0443276 0)
(-0.178967 -0.00106961 0)
(-0.177259 -0.0467989 0)
(-0.171921 -0.091269 0)
(-0.162437 -0.132381 0)
(-0.148232 -0.167173 0)
(-0.128883 -0.191517 0)
(-0.10449 -0.199988 0)
(-0.0762477 -0.18609 0)
(-0.0467937 -0.143098 0)
(-0.0159944 -0.0640682 0)
(-0.0147628 0.075516 0)
(-0.0426228 0.166923 0)
(-0.0684411 0.216322 0)
(-0.0926369 0.234277 0)
(-0.112921 0.229077 0)
(-0.12838 0.207719 0)
(-0.139248 0.175595 0)
(-0.146391 0.136479 0)
(-0.150733 0.0929604 0)
(-0.153036 0.0467186 0)
(-0.153839 -0.00109917 0)
(-0.153235 -0.0494965 0)
(-0.150855 -0.0972825 0)
(-0.145947 -0.142649 0)
(-0.137426 -0.182688 0)
(-0.124038 -0.212909 0)
(-0.104743 -0.226831 0)
(-0.0795002 -0.215923 0)
(-0.0502191 -0.170271 0)
(-0.0173042 -0.0785619 0)
(-0.0156493 0.0888002 0)
(-0.0447687 0.190896 0)
(-0.0692298 0.241299 0)
(-0.0888418 0.255273 0)
(-0.102153 0.244371 0)
(-0.109483 0.217575 0)
(-0.112239 0.181157 0)
(-0.112211 0.139179 0)
(-0.110984 0.0940754 0)
(-0.109765 0.0470948 0)
(-0.109336 -0.00113388 0)
(-0.109929 -0.0501451 0)
(-0.111202 -0.0992701 0)
(-0.112245 -0.147177 0)
(-0.111541 -0.191288 0)
(-0.106983 -0.227109 0)
(-0.09615 -0.24744 0)
(-0.0771961 -0.241747 0)
(-0.0506642 -0.196283 0)
(-0.0176135 -0.0936519 0)
(-0.0149736 0.102396 0)
(-0.0428267 0.213008 0)
(-0.0632276 0.261253 0)
(-0.0747472 0.26857 0)
(-0.0773174 0.250499 0)
(-0.0731293 0.218103 0)
(-0.0650537 0.178302 0)
(-0.0557975 0.135032 0)
(-0.047573 0.0903105 0)
(-0.0419614 0.0448477 0)
(-0.0398828 -0.00131352 0)
(-0.0416398 -0.0483103 0)
(-0.0469614 -0.096096 0)
(-0.0549371 -0.144002 0)
(-0.0638569 -0.190113 0)
(-0.0709684 -0.230405 0)
(-0.072423 -0.257527 0)
(-0.0640827 -0.259367 0)
(-0.0443562 -0.218023 0)
(-0.0154338 -0.108053 0)
(-0.0105035 0.114697 0)
(-0.0313989 0.229563 0)
(-0.0431327 0.271543 0)
(-0.0418669 0.269728 0)
(-0.0294986 0.243877 0)
(-0.0105737 0.2066 0)
(0.0104313 0.16506 0)
(0.0300748 0.122705 0)
(0.045913 0.080814 0)
(0.0562924 0.0394537 0)
(0.0603006 -0.00189198 0)
(0.0576105 -0.0439184 0)
(0.0483592 -0.0872085 0)
(0.0332358 -0.131864 0)
(0.0137761 -0.1769 0)
(-0.00706928 -0.219243 0)
(-0.0243593 -0.252181 0)
(-0.0315667 -0.263089 0)
(-0.0244337 -0.230518 0)
(-0.00782783 -0.119342 0)
(0.00294063 0.122277 0)
(0.00104127 0.234168 0)
(0.00532685 0.265367 0)
(0.0247569 0.25327 0)
(0.055286 0.22092 0)
(0.0902927 0.181343 0)
(0.124411 0.140965 0)
(0.153919 0.10237 0)
(0.176542 0.0660039 0)
(0.190993 0.0313094 0)
(0.19666 -0.00267045 0)
(0.193306 -0.0370257 0)
(0.180888 -0.0728164 0)
(0.159657 -0.110812 0)
(0.13056 -0.150963 0)
(0.0960717 -0.191439 0)
(0.0612944 -0.227044 0)
(0.0343378 -0.246464 0)
(0.0217246 -0.227041 0)
(0.0114114 -0.123699 0)
(0.0383447 0.118751 0)
(0.0787098 0.216683 0)
(0.108527 0.233763 0)
(0.149712 0.213801 0)
(0.198029 0.179643 0)
(0.246274 0.142723 0)
(0.289478 0.107781 0)
(0.32479 0.0762335 0)
(0.350788 0.0478697 0)
(0.366923 0.0218023 0)
(0.373092 -0.00308775 0)
(0.369246 -0.0280101 0)
(0.355185 -0.0541992 0)
(0.330656 -0.0827424 0)
(0.295766 -0.114183 0)
(0.251813 -0.14782 0)
(0.202581 -0.180537 0)
(0.15567 -0.204356 0)
(0.117837 -0.199801 0)
(0.0572947 -0.115355 0)
(0.133828 0.0958384 0)
(0.252033 0.166211 0)
(0.312056 0.169841 0)
(0.369813 0.149516 0)
(0.425896 0.121859 0)
(0.476175 0.0942377 0)
(0.518015 0.0694101 0)
(0.550353 0.0479167 0)
(0.573052 0.029319 0)
(0.586435 0.0128143 0)
(0.590901 -0.00252016 0)
(0.586593 -0.0176703 0)
(0.573245 -0.0336539 0)
(0.550297 -0.0513932 0)
(0.517182 -0.0714758 0)
(0.473809 -0.0938391 0)
(0.421482 -0.117228 0)
(0.364785 -0.137769 0)
(0.308279 -0.144102 0)
(0.172065 -0.0887354 0)
(0.430259 0.0368561 0)
(0.626559 0.0632369 0)
(0.686728 0.0635166 0)
(0.730406 0.0552757 0)
(0.766184 0.0446445 0)
(0.794925 0.0342177 0)
(0.816926 0.0249703 0)
(0.832705 0.0170793 0)
(0.842903 0.0103692 0)
(0.848134 0.00453185 0)
(0.848846 -0.000789878 0)
(0.845171 -0.00598065 0)
(0.836907 -0.0114344 0)
(0.823618 -0.0174986 0)
(0.804709 -0.024397 0)
(0.779499 -0.0321659 0)
(0.74758 -0.0405276 0)
(0.710198 -0.0484813 0)
(0.672793 -0.052864 0)
(0.492628 -0.0343346 0)
)
;

boundaryField
{
    movingWall
    {
        type            fixedValue;
        value           uniform (1 0 0);
    }
    fixedWalls
    {
        type            noSlip;
    }
    frontAndBack
    {
        type            empty;
    }
}


// ************************************************************************* //
