/*--------------------------------*- C++ -*----------------------------------*\
| =========                 |                                                 |
| \\      /  F ield         | OpenFOAM: The Open Source CFD Toolbox           |
|  \\    /   O peration     | Version:  v2012                                 |
|   \\  /    A nd           | Website:  www.openfoam.com                      |
|    \\/     M anipulation  |                                                 |
\*---------------------------------------------------------------------------*/
FoamFile
{
    version     2.0;
    format      ascii;
    class       volVectorField;
    location    "6";
    object      U;
}
// * * * * * * * * * * * * * * * * * * * * * * * * * * * * * * * * * * * * * //

dimensions      [0 1 -1 0 0 0 0];


internalField   nonuniform List<vector> 
400
(
(-1.82895e-11 -1.82895e-11 0)
(-9.79438e-13 -1.93371e-11 0)
(-1.00828e-12 -2.04378e-11 0)
(-1.01429e-12 -2.15734e-11 0)
(-9.87682e-13 -2.2715e-11 0)
(-9.18247e-13 -2.38198e-11 0)
(-7.97603e-13 -2.48311e-11 0)
(-6.22348e-13 -2.56811e-11 0)
(-3.97227e-13 -2.62994e-11 0)
(-1.36696e-13 -2.6626e-11 0)
(1.36696e-13 -2.6626e-11 0)
(3.97227e-13 -2.62994e-11 0)
(6.22348e-13 -2.56811e-11 0)
(7.97603e-13 -2.48311e-11 0)
(9.18247e-13 -2.38198e-11 0)
(9.87682e-13 -2.2715e-11 0)
(1.01429e-12 -2.15734e-11 0)
(1.00828e-12 -2.04378e-11 0)
(9.79438e-13 -1.93371e-11 0)
(1.82895e-11 -1.82895e-11 0)
(-1.93371e-11 -9.79438e-13 0)
(-1.1688e-12 -1.1688e-12 0)
(-1.22802e-12 -1.39513e-12 0)
(-1.26295e-12 -1.66101e-12 0)
(-1.25869e-12 -1.96477e-12 0)
(-1.19786e-12 -2.29723e-12 0)
(-1.06372e-12 -2.63811e-12 0)
(-8.45961e-13 -2.95422e-12 0)
(-5.47627e-13 -3.20249e-12 0)
(-1.89878e-13 -3.34023e-12 0)
(1.89878e-13 -3.34023e-12 0)
(5.47627e-13 -3.20249e-12 0)
(8.45961e-13 -2.95422e-12 0)
(1.06372e-12 -2.63811e-12 0)
(1.19786e-12 -2.29723e-12 0)
(1.25869e-12 -1.96477e-12 0)
(1.26295e-12 -1.66101e-12 0)
(1.22802e-12 -1.39513e-12 0)
(1.1688e-12 -1.1688e-12 0)
(1.93371e-11 -9.79438e-13 0)
(-2.04378e-11 -1.00828e-12 0)
(-1.39513e-12 -1.22802e-12 0)
(-1.50049e-12 -1.50049e-12 0)
(-1.58393e-12 -1.83421e-12 0)
(-1.6239e-12 -2.2337e-12 0)
(-1.59158e-12 -2.69369e-12 0)
(-1.4546e-12 -3.19081e-12 0)
(-1.18673e-12 -3.67577e-12 0)
(-7.83235e-13 -4.07348e-12 0)
(-2.74433e-13 -4.30072e-12 0)
(2.74433e-13 -4.30072e-12 0)
(7.83235e-13 -4.07348e-12 0)
(1.18673e-12 -3.67577e-12 0)
(1.4546e-12 -3.19081e-12 0)
(1.59158e-12 -2.69369e-12 0)
(1.6239e-12 -2.2337e-12 0)
(1.58393e-12 -1.83421e-12 0)
(1.50049e-12 -1.50049e-12 0)
(1.39513e-12 -1.22802e-12 0)
(2.04378e-11 -1.00828e-12 0)
(-2.15734e-11 -1.01429e-12 0)
(-1.66101e-12 -1.26295e-12 0)
(-1.83421e-12 -1.58393e-12 0)
(-1.99616e-12 -1.99616e-12 0)
(-2.11818e-12 -2.51761e-12 0)
(-2.15498e-12 -3.1568e-12 0)
(-2.04581e-12 -3.89631e-12 0)
(-1.72862e-12 -4.66933e-12 0)
(-1.17258e-12 -5.34376e-12 0)
(-4.17124e-13 -5.74644e-12 0)
(4.17124e-13 -5.74644e-12 0)
(1.17258e-12 -5.34376e-12 0)
(1.72862e-12 -4.66933e-12 0)
(2.04581e-12 -3.89631e-12 0)
(2.15498e-12 -3.1568e-12 0)
(2.11818e-12 -2.51761e-12 0)
(1.99616e-12 -1.99616e-12 0)
(1.83421e-12 -1.58393e-12 0)
(1.66101e-12 -1.26295e-12 0)
(2.15734e-11 -1.01429e-12 0)
(-2.2715e-11 -9.87682e-13 0)
(-1.96477e-12 -1.25869e-12 0)
(-2.2337e-12 -1.6239e-12 0)
(-2.51761e-12 -2.11818e-12 0)
(-2.78454e-12 -2.78454e-12 0)
(-2.97029e-12 -3.66604e-12 0)
(-2.96713e-12 -4.77992e-12 0)
(-2.63418e-12 -6.06133e-12 0)
(-1.86035e-12 -7.28718e-12 0)
(-6.77116e-13 -8.07172e-12 0)
(6.77116e-13 -8.07172e-12 0)
(1.86035e-12 -7.28718e-12 0)
(2.63418e-12 -6.06133e-12 0)
(2.96713e-12 -4.77992e-12 0)
(2.97029e-12 -3.66604e-12 0)
(2.78454e-12 -2.78454e-12 0)
(2.51761e-12 -2.11818e-12 0)
(2.2337e-12 -1.6239e-12 0)
(1.96477e-12 -1.25869e-12 0)
(2.2715e-11 -9.87682e-13 0)
(-2.38198e-11 -9.18247e-13 0)
(-2.29723e-12 -1.19786e-12 0)
(-2.69369e-12 -1.59158e-12 0)
(-3.1568e-12 -2.15498e-12 0)
(-3.66604e-12 -2.97029e-12 0)
(-4.15036e-12 -4.15036e-12 0)
(-4.4411e-12 -5.81871e-12 0)
(-4.23588e-12 -8.01239e-12 0)
(-3.18297e-12 -1.04323e-11 0)
(-1.20167e-12 -1.21753e-11 0)
(1.20167e-12 -1.21753e-11 0)
(3.18297e-12 -1.04323e-11 0)
(4.23588e-12 -8.01239e-12 0)
(4.4411e-12 -5.81871e-12 0)
(4.15036e-12 -4.15036e-12 0)
(3.66604e-12 -2.97029e-12 0)
(3.1568e-12 -2.15498e-12 0)
(2.69369e-12 -1.59158e-12 0)
(2.29723e-12 -1.19786e-12 0)
(2.38198e-11 -9.18247e-13 0)
(-2.48311e-11 -7.97603e-13 0)
(-2.63811e-12 -1.06372e-12 0)
(-3.19081e-12 -1.4546e-12 0)
(-3.89631e-12 -2.04581e-12 0)
(-4.77992e-12 -2.96713e-12 0)
(-5.81871e-12 -4.4411e-12 0)
(-6.82916e-12 -6.82916e-12 0)
(-7.24772e-12 -1.05979e-11 0)
(-6.02327e-12 -1.58131e-11 0)
(-2.42018e-12 -2.05016e-11 0)
(2.42018e-12 -2.05016e-11 0)
(6.02327e-12 -1.58131e-11 0)
(7.24772e-12 -1.05979e-11 0)
(6.82916e-12 -6.82916e-12 0)
(5.81871e-12 -4.4411e-12 0)
(4.77992e-12 -2.96713e-12 0)
(3.89631e-12 -2.04581e-12 0)
(3.19081e-12 -1.4546e-12 0)
(2.63811e-12 -1.06372e-12 0)
(2.48311e-11 -7.97603e-13 0)
(-2.56811e-11 -6.22348e-13 0)
(-2.95422e-12 -8.45961e-13 0)
(-3.67577e-12 -1.18673e-12 0)
(-4.66933e-12 -1.72862e-12 0)
(-6.06133e-12 -2.63418e-12 0)
(-8.01239e-12 -4.23588e-12 0)
(-1.05979e-11 -7.24772e-12 0)
(-1.32198e-11 -1.32198e-11 0)
(-1.30867e-11 -2.49786e-11 0)
(-5.8902e-12 -4.18256e-11 0)
(5.8902e-12 -4.18256e-11 0)
(1.30867e-11 -2.49786e-11 0)
(1.32198e-11 -1.32198e-11 0)
(1.05979e-11 -7.24772e-12 0)
(8.01239e-12 -4.23588e-12 0)
(6.06133e-12 -2.63418e-12 0)
(4.66933e-12 -1.72862e-12 0)
(3.67577e-12 -1.18673e-12 0)
(2.95422e-12 -8.45961e-13 0)
(2.56811e-11 -6.22348e-13 0)
(-2.62994e-11 -3.97227e-13 0)
(-3.20249e-12 -5.47627e-13 0)
(-4.07348e-12 -7.83235e-13 0)
(-5.34376e-12 -1.17258e-12 0)
(-7.28718e-12 -1.86035e-12 0)
(-1.04323e-11 -3.18297e-12 0)
(-1.58131e-11 -6.02327e-12 0)
(-2.49786e-11 -1.30867e-11 0)
(-3.46291e-11 -3.46291e-11 0)
(-1.92672e-11 -1.22264e-10 0)
(1.92672e-11 -1.22264e-10 0)
(3.46291e-11 -3.46291e-11 0)
(2.49786e-11 -1.30867e-11 0)
(1.58131e-11 -6.02327e-12 0)
(1.04323e-11 -3.18297e-12 0)
(7.28718e-12 -1.86035e-12 0)
(5.34376e-12 -1.17258e-12 0)
(4.07348e-12 -7.83235e-13 0)
(3.20249e-12 -5.47627e-13 0)
(2.62994e-11 -3.97227e-13 0)
(-2.6626e-11 -1.36696e-13 0)
(-3.34023e-12 -1.89878e-13 0)
(-4.30072e-12 -2.74433e-13 0)
(-5.74644e-12 -4.17124e-13 0)
(-8.07172e-12 -6.77116e-13 0)
(-1.21753e-11 -1.20167e-12 0)
(-2.05016e-11 -2.42018e-12 0)
(-4.18256e-11 -5.8902e-12 0)
(-1.22264e-10 -1.92672e-11 0)
(-9.3525e-11 -9.3525e-11 0)
(9.3525e-11 -9.3525e-11 0)
(1.22264e-10 -1.92672e-11 0)
(4.18256e-11 -5.8902e-12 0)
(2.05016e-11 -2.42018e-12 0)
(1.21753e-11 -1.20167e-12 0)
(8.07172e-12 -6.77116e-13 0)
(5.74644e-12 -4.17124e-13 0)
(4.30072e-12 -2.74433e-13 0)
(3.34023e-12 -1.89878e-13 0)
(2.6626e-11 -1.36696e-13 0)
(-2.6626e-11 1.36696e-13 0)
(-3.34023e-12 1.89878e-13 0)
(-4.30072e-12 2.74433e-13 0)
(-5.74644e-12 4.17124e-13 0)
(-8.07172e-12 6.77116e-13 0)
(-1.21753e-11 1.20167e-12 0)
(-2.05016e-11 2.42018e-12 0)
(-4.18256e-11 5.8902e-12 0)
(-1.22264e-10 1.92672e-11 0)
(-9.3525e-11 9.3525e-11 0)
(9.3525e-11 9.3525e-11 0)
(1.22264e-10 1.92672e-11 0)
(4.18256e-11 5.8902e-12 0)
(2.05016e-11 2.42018e-12 0)
(1.21753e-11 1.20167e-12 0)
(8.07172e-12 6.77116e-13 0)
(5.74644e-12 4.17124e-13 0)
(4.30072e-12 2.74433e-13 0)
(3.34023e-12 1.89878e-13 0)
(2.6626e-11 1.36696e-13 0)
(-2.62994e-11 3.97227e-13 0)
(-3.20249e-12 5.47627e-13 0)
(-4.07348e-12 7.83235e-13 0)
(-5.34376e-12 1.17258e-12 0)
(-7.28718e-12 1.86035e-12 0)
(-1.04323e-11 3.18297e-12 0)
(-1.58131e-11 6.02327e-12 0)
(-2.49786e-11 1.30867e-11 0)
(-3.46291e-11 3.46291e-11 0)
(-1.92672e-11 1.22264e-10 0)
(1.92672e-11 1.22264e-10 0)
(3.46291e-11 3.46291e-11 0)
(2.49786e-11 1.30867e-11 0)
(1.58131e-11 6.02327e-12 0)
(1.04323e-11 3.18297e-12 0)
(7.28718e-12 1.86035e-12 0)
(5.34376e-12 1.17258e-12 0)
(4.07348e-12 7.83235e-13 0)
(3.20249e-12 5.47627e-13 0)
(2.62994e-11 3.97227e-13 0)
(-2.56811e-11 6.22348e-13 0)
(-2.95422e-12 8.45961e-13 0)
(-3.67577e-12 1.18673e-12 0)
(-4.66933e-12 1.72862e-12 0)
(-6.06133e-12 2.63418e-12 0)
(-8.01239e-12 4.23588e-12 0)
(-1.05979e-11 7.24772e-12 0)
(-1.32198e-11 1.32198e-11 0)
(-1.30867e-11 2.49786e-11 0)
(-5.8902e-12 4.18256e-11 0)
(5.8902e-12 4.18256e-11 0)
(1.30867e-11 2.49786e-11 0)
(1.32198e-11 1.32198e-11 0)
(1.05979e-11 7.24772e-12 0)
(8.01239e-12 4.23588e-12 0)
(6.06133e-12 2.63418e-12 0)
(4.66933e-12 1.72862e-12 0)
(3.67577e-12 1.18673e-12 0)
(2.95422e-12 8.45961e-13 0)
(2.56811e-11 6.22348e-13 0)
(-2.48311e-11 7.97603e-13 0)
(-2.63811e-12 1.06372e-12 0)
(-3.19081e-12 1.4546e-12 0)
(-3.89631e-12 2.04581e-12 0)
(-4.77992e-12 2.96713e-12 0)
(-5.81871e-12 4.4411e-12 0)
(-6.82916e-12 6.82916e-12 0)
(-7.24772e-12 1.05979e-11 0)
(-6.02327e-12 1.58131e-11 0)
(-2.42018e-12 2.05016e-11 0)
(2.42018e-12 2.05016e-11 0)
(6.02327e-12 1.58131e-11 0)
(7.24772e-12 1.05979e-11 0)
(6.82916e-12 6.82916e-12 0)
(5.81871e-12 4.4411e-12 0)
(4.77992e-12 2.96713e-12 0)
(3.89631e-12 2.04581e-12 0)
(3.19081e-12 1.4546e-12 0)
(2.63811e-12 1.06372e-12 0)
(2.48311e-11 7.97603e-13 0)
(-2.38198e-11 9.18247e-13 0)
(-2.29723e-12 1.19786e-12 0)
(-2.69369e-12 1.59158e-12 0)
(-3.1568e-12 2.15498e-12 0)
(-3.66604e-12 2.97029e-12 0)
(-4.15036e-12 4.15036e-12 0)
(-4.4411e-12 5.81871e-12 0)
(-4.23588e-12 8.01239e-12 0)
(-3.18297e-12 1.04323e-11 0)
(-1.20167e-12 1.21753e-11 0)
(1.20167e-12 1.21753e-11 0)
(3.18297e-12 1.04323e-11 0)
(4.23588e-12 8.01239e-12 0)
(4.4411e-12 5.81871e-12 0)
(4.15036e-12 4.15036e-12 0)
(3.66604e-12 2.97029e-12 0)
(3.1568e-12 2.15498e-12 0)
(2.69369e-12 1.59158e-12 0)
(2.29723e-12 1.19786e-12 0)
(2.38198e-11 9.18247e-13 0)
(-2.2715e-11 9.87682e-13 0)
(-1.96477e-12 1.25869e-12 0)
(-2.2337e-12 1.6239e-12 0)
(-2.51761e-12 2.11818e-12 0)
(-2.78454e-12 2.78454e-12 0)
(-2.97029e-12 3.66604e-12 0)
(-2.96713e-12 4.77992e-12 0)
(-2.63418e-12 6.06133e-12 0)
(-1.86035e-12 7.28718e-12 0)
(-6.77116e-13 8.07172e-12 0)
(6.77116e-13 8.07172e-12 0)
(1.86035e-12 7.28718e-12 0)
(2.63418e-12 6.06133e-12 0)
(2.96713e-12 4.77992e-12 0)
(2.97029e-12 3.66604e-12 0)
(2.78454e-12 2.78454e-12 0)
(2.51761e-12 2.11818e-12 0)
(2.2337e-12 1.6239e-12 0)
(1.96477e-12 1.25869e-12 0)
(2.2715e-11 9.87682e-13 0)
(-2.15734e-11 1.01429e-12 0)
(-1.66101e-12 1.26295e-12 0)
(-1.83421e-12 1.58393e-12 0)
(-1.99616e-12 1.99616e-12 0)
(-2.11818e-12 2.51761e-12 0)
(-2.15498e-12 3.1568e-12 0)
(-2.04581e-12 3.89631e-12 0)
(-1.72862e-12 4.66933e-12 0)
(-1.17258e-12 5.34376e-12 0)
(-4.17124e-13 5.74644e-12 0)
(4.17124e-13 5.74644e-12 0)
(1.17258e-12 5.34376e-12 0)
(1.72862e-12 4.66933e-12 0)
(2.04581e-12 3.89631e-12 0)
(2.15498e-12 3.1568e-12 0)
(2.11818e-12 2.51761e-12 0)
(1.99616e-12 1.99616e-12 0)
(1.83421e-12 1.58393e-12 0)
(1.66101e-12 1.26295e-12 0)
(2.15734e-11 1.01429e-12 0)
(-2.04378e-11 1.00828e-12 0)
(-1.39513e-12 1.22802e-12 0)
(-1.50049e-12 1.50049e-12 0)
(-1.58393e-12 1.83421e-12 0)
(-1.6239e-12 2.2337e-12 0)
(-1.59158e-12 2.69369e-12 0)
(-1.4546e-12 3.19081e-12 0)
(-1.18673e-12 3.67577e-12 0)
(-7.83235e-13 4.07348e-12 0)
(-2.74433e-13 4.30072e-12 0)
(2.74433e-13 4.30072e-12 0)
(7.83235e-13 4.07348e-12 0)
(1.18673e-12 3.67577e-12 0)
(1.4546e-12 3.19081e-12 0)
(1.59158e-12 2.69369e-12 0)
(1.6239e-12 2.2337e-12 0)
(1.58393e-12 1.83421e-12 0)
(1.50049e-12 1.50049e-12 0)
(1.39513e-12 1.22802e-12 0)
(2.04378e-11 1.00828e-12 0)
(-1.93371e-11 9.79438e-13 0)
(-1.1688e-12 1.1688e-12 0)
(-1.22802e-12 1.39513e-12 0)
(-1.26295e-12 1.66101e-12 0)
(-1.25869e-12 1.96477e-12 0)
(-1.19786e-12 2.29723e-12 0)
(-1.06372e-12 2.63811e-12 0)
(-8.45961e-13 2.95422e-12 0)
(-5.47627e-13 3.20249e-12 0)
(-1.89878e-13 3.34023e-12 0)
(1.89878e-13 3.34023e-12 0)
(5.47627e-13 3.20249e-12 0)
(8.45961e-13 2.95422e-12 0)
(1.06372e-12 2.63811e-12 0)
(1.19786e-12 2.29723e-12 0)
(1.25869e-12 1.96477e-12 0)
(1.26295e-12 1.66101e-12 0)
(1.22802e-12 1.39513e-12 0)
(1.1688e-12 1.1688e-12 0)
(1.93371e-11 9.79438e-13 0)
(-1.82895e-11 1.82895e-11 0)
(-9.79438e-13 1.93371e-11 0)
(-1.00828e-12 2.04378e-11 0)
(-1.01429e-12 2.15734e-11 0)
(-9.87682e-13 2.2715e-11 0)
(-9.18247e-13 2.38198e-11 0)
(-7.97603e-13 2.48311e-11 0)
(-6.22348e-13 2.56811e-11 0)
(-3.97227e-13 2.62994e-11 0)
(-1.36696e-13 2.6626e-11 0)
(1.36696e-13 2.6626e-11 0)
(3.97227e-13 2.62994e-11 0)
(6.22348e-13 2.56811e-11 0)
(7.97603e-13 2.48311e-11 0)
(9.18247e-13 2.38198e-11 0)
(9.87682e-13 2.2715e-11 0)
(1.01429e-12 2.15734e-11 0)
(1.00828e-12 2.04378e-11 0)
(9.79438e-13 1.93371e-11 0)
(1.82895e-11 1.82895e-11 0)
)
;

boundaryField
{
    movingWall
    {
        type            fixedValue;
        value           uniform (1 0 0);
    }
    fixedWalls
    {
        type            fixedValue;
        value           uniform (0 0 0);
    }
    frontAndBack
    {
        type            empty;
    }
}


// ************************************************************************* //
