/*--------------------------------*- C++ -*----------------------------------*\
| =========                 |                                                 |
| \\      /  F ield         | OpenFOAM: The Open Source CFD Toolbox           |
|  \\    /   O peration     | Version:  v2012                                 |
|   \\  /    A nd           | Website:  www.openfoam.com                      |
|    \\/     M anipulation  |                                                 |
\*---------------------------------------------------------------------------*/
FoamFile
{
    version     2.0;
    format      ascii;
    class       volVectorField;
    location    "3.5";
    object      U;
}
// * * * * * * * * * * * * * * * * * * * * * * * * * * * * * * * * * * * * * //

dimensions      [0 1 -1 0 0 0 0];


internalField   nonuniform List<vector> 
400
(
(6.17398e-12 6.17398e-12 0)
(3.30628e-13 6.52762e-12 0)
(3.40363e-13 6.89916e-12 0)
(3.42393e-13 7.28252e-12 0)
(3.33411e-13 7.66788e-12 0)
(3.09972e-13 8.04083e-12 0)
(2.69246e-13 8.38221e-12 0)
(2.10085e-13 8.66916e-12 0)
(1.34092e-13 8.87787e-12 0)
(4.61444e-14 8.98811e-12 0)
(-4.61444e-14 8.98811e-12 0)
(-1.34092e-13 8.87787e-12 0)
(-2.10085e-13 8.66916e-12 0)
(-2.69246e-13 8.38221e-12 0)
(-3.09972e-13 8.04083e-12 0)
(-3.33411e-13 7.66788e-12 0)
(-3.42393e-13 7.28252e-12 0)
(-3.40363e-13 6.89916e-12 0)
(-3.30628e-13 6.52762e-12 0)
(-6.17398e-12 6.17398e-12 0)
(6.52762e-12 3.30628e-13 0)
(3.9455e-13 3.9455e-13 0)
(4.14543e-13 4.70954e-13 0)
(4.26332e-13 5.60707e-13 0)
(4.24896e-13 6.63246e-13 0)
(4.04361e-13 7.75473e-13 0)
(3.59081e-13 8.90544e-13 0)
(2.8557e-13 9.97254e-13 0)
(1.84862e-13 1.08106e-12 0)
(6.40969e-14 1.12756e-12 0)
(-6.40969e-14 1.12756e-12 0)
(-1.84862e-13 1.08106e-12 0)
(-2.8557e-13 9.97254e-13 0)
(-3.59081e-13 8.90544e-13 0)
(-4.04361e-13 7.75473e-13 0)
(-4.24896e-13 6.63246e-13 0)
(-4.26332e-13 5.60707e-13 0)
(-4.14543e-13 4.70954e-13 0)
(-3.9455e-13 3.9455e-13 0)
(-6.52762e-12 3.30628e-13 0)
(6.89916e-12 3.40363e-13 0)
(4.70954e-13 4.14543e-13 0)
(5.06519e-13 5.06519e-13 0)
(5.34685e-13 6.19172e-13 0)
(5.48177e-13 7.54028e-13 0)
(5.37269e-13 9.09307e-13 0)
(4.91027e-13 1.07712e-12 0)
(4.00604e-13 1.24083e-12 0)
(2.64396e-13 1.37508e-12 0)
(9.264e-14 1.45179e-12 0)
(-9.264e-14 1.45179e-12 0)
(-2.64396e-13 1.37508e-12 0)
(-4.00604e-13 1.24083e-12 0)
(-4.91027e-13 1.07712e-12 0)
(-5.37269e-13 9.09307e-13 0)
(-5.48177e-13 7.54028e-13 0)
(-5.34685e-13 6.19172e-13 0)
(-5.06519e-13 5.06519e-13 0)
(-4.70954e-13 4.14543e-13 0)
(-6.89916e-12 3.40363e-13 0)
(7.28252e-12 3.42393e-13 0)
(5.60707e-13 4.26332e-13 0)
(6.19172e-13 5.34685e-13 0)
(6.73841e-13 6.73841e-13 0)
(7.15031e-13 8.49866e-13 0)
(7.27453e-13 1.06564e-12 0)
(6.90601e-13 1.31528e-12 0)
(5.8353e-13 1.57622e-12 0)
(3.95826e-13 1.80389e-12 0)
(1.40808e-13 1.93982e-12 0)
(-1.40808e-13 1.93982e-12 0)
(-3.95826e-13 1.80389e-12 0)
(-5.8353e-13 1.57622e-12 0)
(-6.90601e-13 1.31528e-12 0)
(-7.27453e-13 1.06564e-12 0)
(-7.15031e-13 8.49866e-13 0)
(-6.73841e-13 6.73841e-13 0)
(-6.19172e-13 5.34685e-13 0)
(-5.60707e-13 4.26332e-13 0)
(-7.28252e-12 3.42393e-13 0)
(7.66788e-12 3.33411e-13 0)
(6.63246e-13 4.24896e-13 0)
(7.54028e-13 5.48177e-13 0)
(8.49866e-13 7.15031e-13 0)
(9.39975e-13 9.39975e-13 0)
(1.00268e-12 1.23754e-12 0)
(1.00161e-12 1.61356e-12 0)
(8.89217e-13 2.04612e-12 0)
(6.27996e-13 2.45993e-12 0)
(2.28573e-13 2.72477e-12 0)
(-2.28573e-13 2.72477e-12 0)
(-6.27996e-13 2.45993e-12 0)
(-8.89217e-13 2.04612e-12 0)
(-1.00161e-12 1.61356e-12 0)
(-1.00268e-12 1.23754e-12 0)
(-9.39975e-13 9.39975e-13 0)
(-8.49866e-13 7.15031e-13 0)
(-7.54028e-13 5.48177e-13 0)
(-6.63246e-13 4.24896e-13 0)
(-7.66788e-12 3.33411e-13 0)
(8.04083e-12 3.09972e-13 0)
(7.75473e-13 4.04361e-13 0)
(9.09307e-13 5.37269e-13 0)
(1.06564e-12 7.27453e-13 0)
(1.23754e-12 1.00268e-12 0)
(1.40103e-12 1.40103e-12 0)
(1.49918e-12 1.96422e-12 0)
(1.4299e-12 2.70474e-12 0)
(1.07447e-12 3.52161e-12 0)
(4.05647e-13 4.11001e-12 0)
(-4.05647e-13 4.11001e-12 0)
(-1.07447e-12 3.52161e-12 0)
(-1.4299e-12 2.70474e-12 0)
(-1.49918e-12 1.96422e-12 0)
(-1.40103e-12 1.40103e-12 0)
(-1.23754e-12 1.00268e-12 0)
(-1.06564e-12 7.27453e-13 0)
(-9.09307e-13 5.37269e-13 0)
(-7.75473e-13 4.04361e-13 0)
(-8.04083e-12 3.09972e-13 0)
(8.38221e-12 2.69246e-13 0)
(8.90544e-13 3.59081e-13 0)
(1.07712e-12 4.91027e-13 0)
(1.31528e-12 6.90601e-13 0)
(1.61356e-12 1.00161e-12 0)
(1.96422e-12 1.49918e-12 0)
(2.30531e-12 2.30531e-12 0)
(2.44661e-12 3.57751e-12 0)
(2.03327e-12 5.33801e-12 0)
(8.16978e-13 6.92071e-12 0)
(-8.16978e-13 6.92071e-12 0)
(-2.03327e-12 5.33801e-12 0)
(-2.44661e-12 3.57751e-12 0)
(-2.30531e-12 2.30531e-12 0)
(-1.96422e-12 1.49918e-12 0)
(-1.61356e-12 1.00161e-12 0)
(-1.31528e-12 6.90601e-13 0)
(-1.07712e-12 4.91027e-13 0)
(-8.90544e-13 3.59081e-13 0)
(-8.38221e-12 2.69246e-13 0)
(8.66916e-12 2.10085e-13 0)
(9.97254e-13 2.8557e-13 0)
(1.24083e-12 4.00604e-13 0)
(1.57622e-12 5.8353e-13 0)
(2.04612e-12 8.89217e-13 0)
(2.70474e-12 1.4299e-12 0)
(3.57751e-12 2.44661e-12 0)
(4.4626e-12 4.4626e-12 0)
(4.41768e-12 8.43201e-12 0)
(1.98835e-12 1.4119e-11 0)
(-1.98835e-12 1.4119e-11 0)
(-4.41768e-12 8.43201e-12 0)
(-4.4626e-12 4.4626e-12 0)
(-3.57751e-12 2.44661e-12 0)
(-2.70474e-12 1.4299e-12 0)
(-2.04612e-12 8.89217e-13 0)
(-1.57622e-12 5.8353e-13 0)
(-1.24083e-12 4.00604e-13 0)
(-9.97254e-13 2.8557e-13 0)
(-8.66916e-12 2.10085e-13 0)
(8.87787e-12 1.34092e-13 0)
(1.08106e-12 1.84862e-13 0)
(1.37508e-12 2.64396e-13 0)
(1.80389e-12 3.95826e-13 0)
(2.45993e-12 6.27996e-13 0)
(3.52161e-12 1.07447e-12 0)
(5.33801e-12 2.03327e-12 0)
(8.43201e-12 4.41768e-12 0)
(1.16897e-11 1.16897e-11 0)
(6.50401e-12 4.12725e-11 0)
(-6.50401e-12 4.12725e-11 0)
(-1.16897e-11 1.16897e-11 0)
(-8.43201e-12 4.41768e-12 0)
(-5.33801e-12 2.03327e-12 0)
(-3.52161e-12 1.07447e-12 0)
(-2.45993e-12 6.27996e-13 0)
(-1.80389e-12 3.95826e-13 0)
(-1.37508e-12 2.64396e-13 0)
(-1.08106e-12 1.84862e-13 0)
(-8.87787e-12 1.34092e-13 0)
(8.98811e-12 4.61444e-14 0)
(1.12756e-12 6.40969e-14 0)
(1.45179e-12 9.264e-14 0)
(1.93982e-12 1.40808e-13 0)
(2.72477e-12 2.28573e-13 0)
(4.11001e-12 4.05647e-13 0)
(6.92071e-12 8.16978e-13 0)
(1.4119e-11 1.98835e-12 0)
(4.12725e-11 6.50401e-12 0)
(3.15711e-11 3.15711e-11 0)
(-3.15711e-11 3.15711e-11 0)
(-4.12725e-11 6.50401e-12 0)
(-1.4119e-11 1.98835e-12 0)
(-6.92071e-12 8.16978e-13 0)
(-4.11001e-12 4.05647e-13 0)
(-2.72477e-12 2.28573e-13 0)
(-1.93982e-12 1.40808e-13 0)
(-1.45179e-12 9.264e-14 0)
(-1.12756e-12 6.40969e-14 0)
(-8.98811e-12 4.61444e-14 0)
(8.98811e-12 -4.61444e-14 0)
(1.12756e-12 -6.40969e-14 0)
(1.45179e-12 -9.264e-14 0)
(1.93982e-12 -1.40808e-13 0)
(2.72477e-12 -2.28573e-13 0)
(4.11001e-12 -4.05647e-13 0)
(6.92071e-12 -8.16978e-13 0)
(1.4119e-11 -1.98835e-12 0)
(4.12725e-11 -6.50401e-12 0)
(3.15711e-11 -3.15711e-11 0)
(-3.15711e-11 -3.15711e-11 0)
(-4.12725e-11 -6.50401e-12 0)
(-1.4119e-11 -1.98835e-12 0)
(-6.92071e-12 -8.16978e-13 0)
(-4.11001e-12 -4.05647e-13 0)
(-2.72477e-12 -2.28573e-13 0)
(-1.93982e-12 -1.40808e-13 0)
(-1.45179e-12 -9.264e-14 0)
(-1.12756e-12 -6.40969e-14 0)
(-8.98811e-12 -4.61444e-14 0)
(8.87787e-12 -1.34092e-13 0)
(1.08106e-12 -1.84862e-13 0)
(1.37508e-12 -2.64396e-13 0)
(1.80389e-12 -3.95826e-13 0)
(2.45993e-12 -6.27996e-13 0)
(3.52161e-12 -1.07447e-12 0)
(5.33801e-12 -2.03327e-12 0)
(8.43201e-12 -4.41768e-12 0)
(1.16897e-11 -1.16897e-11 0)
(6.50401e-12 -4.12725e-11 0)
(-6.50401e-12 -4.12725e-11 0)
(-1.16897e-11 -1.16897e-11 0)
(-8.43201e-12 -4.41768e-12 0)
(-5.33801e-12 -2.03327e-12 0)
(-3.52161e-12 -1.07447e-12 0)
(-2.45993e-12 -6.27996e-13 0)
(-1.80389e-12 -3.95826e-13 0)
(-1.37508e-12 -2.64396e-13 0)
(-1.08106e-12 -1.84862e-13 0)
(-8.87787e-12 -1.34092e-13 0)
(8.66916e-12 -2.10085e-13 0)
(9.97254e-13 -2.8557e-13 0)
(1.24083e-12 -4.00604e-13 0)
(1.57622e-12 -5.8353e-13 0)
(2.04612e-12 -8.89217e-13 0)
(2.70474e-12 -1.4299e-12 0)
(3.57751e-12 -2.44661e-12 0)
(4.4626e-12 -4.4626e-12 0)
(4.41768e-12 -8.43201e-12 0)
(1.98835e-12 -1.4119e-11 0)
(-1.98835e-12 -1.4119e-11 0)
(-4.41768e-12 -8.43201e-12 0)
(-4.4626e-12 -4.4626e-12 0)
(-3.57751e-12 -2.44661e-12 0)
(-2.70474e-12 -1.4299e-12 0)
(-2.04612e-12 -8.89217e-13 0)
(-1.57622e-12 -5.8353e-13 0)
(-1.24083e-12 -4.00604e-13 0)
(-9.97254e-13 -2.8557e-13 0)
(-8.66916e-12 -2.10085e-13 0)
(8.38221e-12 -2.69246e-13 0)
(8.90544e-13 -3.59081e-13 0)
(1.07712e-12 -4.91027e-13 0)
(1.31528e-12 -6.90601e-13 0)
(1.61356e-12 -1.00161e-12 0)
(1.96422e-12 -1.49918e-12 0)
(2.30531e-12 -2.30531e-12 0)
(2.44661e-12 -3.57751e-12 0)
(2.03327e-12 -5.33801e-12 0)
(8.16978e-13 -6.92071e-12 0)
(-8.16978e-13 -6.92071e-12 0)
(-2.03327e-12 -5.33801e-12 0)
(-2.44661e-12 -3.57751e-12 0)
(-2.30531e-12 -2.30531e-12 0)
(-1.96422e-12 -1.49918e-12 0)
(-1.61356e-12 -1.00161e-12 0)
(-1.31528e-12 -6.90601e-13 0)
(-1.07712e-12 -4.91027e-13 0)
(-8.90544e-13 -3.59081e-13 0)
(-8.38221e-12 -2.69246e-13 0)
(8.04083e-12 -3.09972e-13 0)
(7.75473e-13 -4.04361e-13 0)
(9.09307e-13 -5.37269e-13 0)
(1.06564e-12 -7.27453e-13 0)
(1.23754e-12 -1.00268e-12 0)
(1.40103e-12 -1.40103e-12 0)
(1.49918e-12 -1.96422e-12 0)
(1.4299e-12 -2.70474e-12 0)
(1.07447e-12 -3.52161e-12 0)
(4.05647e-13 -4.11001e-12 0)
(-4.05647e-13 -4.11001e-12 0)
(-1.07447e-12 -3.52161e-12 0)
(-1.4299e-12 -2.70474e-12 0)
(-1.49918e-12 -1.96422e-12 0)
(-1.40103e-12 -1.40103e-12 0)
(-1.23754e-12 -1.00268e-12 0)
(-1.06564e-12 -7.27453e-13 0)
(-9.09307e-13 -5.37269e-13 0)
(-7.75473e-13 -4.04361e-13 0)
(-8.04083e-12 -3.09972e-13 0)
(7.66788e-12 -3.33411e-13 0)
(6.63246e-13 -4.24896e-13 0)
(7.54028e-13 -5.48177e-13 0)
(8.49866e-13 -7.15031e-13 0)
(9.39975e-13 -9.39975e-13 0)
(1.00268e-12 -1.23754e-12 0)
(1.00161e-12 -1.61356e-12 0)
(8.89217e-13 -2.04612e-12 0)
(6.27996e-13 -2.45993e-12 0)
(2.28573e-13 -2.72477e-12 0)
(-2.28573e-13 -2.72477e-12 0)
(-6.27996e-13 -2.45993e-12 0)
(-8.89217e-13 -2.04612e-12 0)
(-1.00161e-12 -1.61356e-12 0)
(-1.00268e-12 -1.23754e-12 0)
(-9.39975e-13 -9.39975e-13 0)
(-8.49866e-13 -7.15031e-13 0)
(-7.54028e-13 -5.48177e-13 0)
(-6.63246e-13 -4.24896e-13 0)
(-7.66788e-12 -3.33411e-13 0)
(7.28252e-12 -3.42393e-13 0)
(5.60707e-13 -4.26332e-13 0)
(6.19172e-13 -5.34685e-13 0)
(6.73841e-13 -6.73841e-13 0)
(7.15031e-13 -8.49866e-13 0)
(7.27453e-13 -1.06564e-12 0)
(6.90601e-13 -1.31528e-12 0)
(5.8353e-13 -1.57622e-12 0)
(3.95826e-13 -1.80389e-12 0)
(1.40808e-13 -1.93982e-12 0)
(-1.40808e-13 -1.93982e-12 0)
(-3.95826e-13 -1.80389e-12 0)
(-5.8353e-13 -1.57622e-12 0)
(-6.90601e-13 -1.31528e-12 0)
(-7.27453e-13 -1.06564e-12 0)
(-7.15031e-13 -8.49866e-13 0)
(-6.73841e-13 -6.73841e-13 0)
(-6.19172e-13 -5.34685e-13 0)
(-5.60707e-13 -4.26332e-13 0)
(-7.28252e-12 -3.42393e-13 0)
(6.89916e-12 -3.40363e-13 0)
(4.70954e-13 -4.14543e-13 0)
(5.06519e-13 -5.06519e-13 0)
(5.34685e-13 -6.19172e-13 0)
(5.48177e-13 -7.54028e-13 0)
(5.37269e-13 -9.09307e-13 0)
(4.91027e-13 -1.07712e-12 0)
(4.00604e-13 -1.24083e-12 0)
(2.64396e-13 -1.37508e-12 0)
(9.264e-14 -1.45179e-12 0)
(-9.264e-14 -1.45179e-12 0)
(-2.64396e-13 -1.37508e-12 0)
(-4.00604e-13 -1.24083e-12 0)
(-4.91027e-13 -1.07712e-12 0)
(-5.37269e-13 -9.09307e-13 0)
(-5.48177e-13 -7.54028e-13 0)
(-5.34685e-13 -6.19172e-13 0)
(-5.06519e-13 -5.06519e-13 0)
(-4.70954e-13 -4.14543e-13 0)
(-6.89916e-12 -3.40363e-13 0)
(6.52762e-12 -3.30628e-13 0)
(3.9455e-13 -3.9455e-13 0)
(4.14543e-13 -4.70954e-13 0)
(4.26332e-13 -5.60707e-13 0)
(4.24896e-13 -6.63246e-13 0)
(4.04361e-13 -7.75473e-13 0)
(3.59081e-13 -8.90544e-13 0)
(2.8557e-13 -9.97254e-13 0)
(1.84862e-13 -1.08106e-12 0)
(6.40969e-14 -1.12756e-12 0)
(-6.40969e-14 -1.12756e-12 0)
(-1.84862e-13 -1.08106e-12 0)
(-2.8557e-13 -9.97254e-13 0)
(-3.59081e-13 -8.90544e-13 0)
(-4.04361e-13 -7.75473e-13 0)
(-4.24896e-13 -6.63246e-13 0)
(-4.26332e-13 -5.60707e-13 0)
(-4.14543e-13 -4.70954e-13 0)
(-3.9455e-13 -3.9455e-13 0)
(-6.52762e-12 -3.30628e-13 0)
(6.17398e-12 -6.17398e-12 0)
(3.30628e-13 -6.52762e-12 0)
(3.40363e-13 -6.89916e-12 0)
(3.42393e-13 -7.28252e-12 0)
(3.33411e-13 -7.66788e-12 0)
(3.09972e-13 -8.04083e-12 0)
(2.69246e-13 -8.38221e-12 0)
(2.10085e-13 -8.66916e-12 0)
(1.34092e-13 -8.87787e-12 0)
(4.61444e-14 -8.98811e-12 0)
(-4.61444e-14 -8.98811e-12 0)
(-1.34092e-13 -8.87787e-12 0)
(-2.10085e-13 -8.66916e-12 0)
(-2.69246e-13 -8.38221e-12 0)
(-3.09972e-13 -8.04083e-12 0)
(-3.33411e-13 -7.66788e-12 0)
(-3.42393e-13 -7.28252e-12 0)
(-3.40363e-13 -6.89916e-12 0)
(-3.30628e-13 -6.52762e-12 0)
(-6.17398e-12 -6.17398e-12 0)
)
;

boundaryField
{
    movingWall
    {
        type            fixedValue;
        value           uniform (1 0 0);
    }
    fixedWalls
    {
        type            fixedValue;
        value           uniform (0 0 0);
    }
    frontAndBack
    {
        type            empty;
    }
}


// ************************************************************************* //
