/*--------------------------------*- C++ -*----------------------------------*\
| =========                 |                                                 |
| \\      /  F ield         | OpenFOAM: The Open Source CFD Toolbox           |
|  \\    /   O peration     | Version:  v2012                                 |
|   \\  /    A nd           | Website:  www.openfoam.com                      |
|    \\/     M anipulation  |                                                 |
\*---------------------------------------------------------------------------*/
FoamFile
{
    version     2.0;
    format      ascii;
    class       volVectorField;
    location    "2";
    object      U;
}
// * * * * * * * * * * * * * * * * * * * * * * * * * * * * * * * * * * * * * //

dimensions      [0 1 -1 0 0 0 0];


internalField   nonuniform List<vector> 
400
(
(-1.03295e-13 -1.03295e-13 0)
(-5.53166e-15 -1.09212e-13 0)
(-5.69452e-15 -1.15428e-13 0)
(-5.72849e-15 -1.21842e-13 0)
(-5.57821e-15 -1.28289e-13 0)
(-5.18606e-15 -1.34529e-13 0)
(-4.50469e-15 -1.40241e-13 0)
(-3.51488e-15 -1.45041e-13 0)
(-2.24345e-15 -1.48533e-13 0)
(-7.7203e-16 -1.50378e-13 0)
(7.7203e-16 -1.50378e-13 0)
(2.24345e-15 -1.48533e-13 0)
(3.51488e-15 -1.45041e-13 0)
(4.50469e-15 -1.40241e-13 0)
(5.18606e-15 -1.34529e-13 0)
(5.57821e-15 -1.28289e-13 0)
(5.72849e-15 -1.21842e-13 0)
(5.69452e-15 -1.15428e-13 0)
(5.53166e-15 -1.09212e-13 0)
(1.03295e-13 -1.03295e-13 0)
(-1.09212e-13 -5.53166e-15 0)
(-6.60111e-15 -6.60111e-15 0)
(-6.93561e-15 -7.87941e-15 0)
(-7.13285e-15 -9.38104e-15 0)
(-7.10883e-15 -1.10966e-14 0)
(-6.76526e-15 -1.29742e-14 0)
(-6.00769e-15 -1.48995e-14 0)
(-4.7778e-15 -1.66848e-14 0)
(-3.09288e-15 -1.8087e-14 0)
(-1.07239e-15 -1.88649e-14 0)
(1.07239e-15 -1.88649e-14 0)
(3.09288e-15 -1.8087e-14 0)
(4.7778e-15 -1.66848e-14 0)
(6.00769e-15 -1.48995e-14 0)
(6.76526e-15 -1.29742e-14 0)
(7.10883e-15 -1.10966e-14 0)
(7.13285e-15 -9.38104e-15 0)
(6.93561e-15 -7.87941e-15 0)
(6.60111e-15 -6.60111e-15 0)
(1.09212e-13 -5.53166e-15 0)
(-1.15428e-13 -5.69452e-15 0)
(-7.87941e-15 -6.93561e-15 0)
(-8.47444e-15 -8.47444e-15 0)
(-8.94568e-15 -1.03592e-14 0)
(-9.17141e-15 -1.26154e-14 0)
(-8.98892e-15 -1.52134e-14 0)
(-8.21525e-15 -1.8021e-14 0)
(-6.7024e-15 -2.076e-14 0)
(-4.42354e-15 -2.30061e-14 0)
(-1.54994e-15 -2.42895e-14 0)
(1.54994e-15 -2.42895e-14 0)
(4.42354e-15 -2.30061e-14 0)
(6.7024e-15 -2.076e-14 0)
(8.21525e-15 -1.8021e-14 0)
(8.98892e-15 -1.52134e-14 0)
(9.17141e-15 -1.26154e-14 0)
(8.94568e-15 -1.03592e-14 0)
(8.47444e-15 -8.47444e-15 0)
(7.87941e-15 -6.93561e-15 0)
(1.15428e-13 -5.69452e-15 0)
(-1.21842e-13 -5.72849e-15 0)
(-9.38104e-15 -7.13285e-15 0)
(-1.03592e-14 -8.94568e-15 0)
(-1.12739e-14 -1.12739e-14 0)
(-1.1963e-14 -1.42189e-14 0)
(-1.21708e-14 -1.78289e-14 0)
(-1.15543e-14 -2.20055e-14 0)
(-9.76289e-15 -2.63714e-14 0)
(-6.62247e-15 -3.01804e-14 0)
(-2.35582e-15 -3.24547e-14 0)
(2.35582e-15 -3.24547e-14 0)
(6.62247e-15 -3.01804e-14 0)
(9.76289e-15 -2.63714e-14 0)
(1.15543e-14 -2.20055e-14 0)
(1.21708e-14 -1.78289e-14 0)
(1.1963e-14 -1.42189e-14 0)
(1.12739e-14 -1.12739e-14 0)
(1.03592e-14 -8.94568e-15 0)
(9.38104e-15 -7.13285e-15 0)
(1.21842e-13 -5.72849e-15 0)
(-1.28289e-13 -5.57821e-15 0)
(-1.10966e-14 -7.10883e-15 0)
(-1.26154e-14 -9.17141e-15 0)
(-1.42189e-14 -1.1963e-14 0)
(-1.57265e-14 -1.57265e-14 0)
(-1.67756e-14 -2.0705e-14 0)
(-1.67577e-14 -2.6996e-14 0)
(-1.48773e-14 -3.42331e-14 0)
(-1.05068e-14 -4.11564e-14 0)
(-3.8242e-15 -4.55873e-14 0)
(3.8242e-15 -4.55873e-14 0)
(1.05068e-14 -4.11564e-14 0)
(1.48773e-14 -3.42331e-14 0)
(1.67577e-14 -2.6996e-14 0)
(1.67756e-14 -2.0705e-14 0)
(1.57265e-14 -1.57265e-14 0)
(1.42189e-14 -1.1963e-14 0)
(1.26154e-14 -9.17141e-15 0)
(1.10966e-14 -7.10883e-15 0)
(1.28289e-13 -5.57821e-15 0)
(-1.34529e-13 -5.18606e-15 0)
(-1.29742e-14 -6.76526e-15 0)
(-1.52134e-14 -8.98892e-15 0)
(-1.78289e-14 -1.21708e-14 0)
(-2.0705e-14 -1.67756e-14 0)
(-2.34403e-14 -2.34403e-14 0)
(-2.50824e-14 -3.28628e-14 0)
(-2.39233e-14 -4.52522e-14 0)
(-1.79767e-14 -5.89191e-14 0)
(-6.78677e-15 -6.87635e-14 0)
(6.78677e-15 -6.87635e-14 0)
(1.79767e-14 -5.89191e-14 0)
(2.39233e-14 -4.52522e-14 0)
(2.50824e-14 -3.28628e-14 0)
(2.34403e-14 -2.34403e-14 0)
(2.0705e-14 -1.67756e-14 0)
(1.78289e-14 -1.21708e-14 0)
(1.52134e-14 -8.98892e-15 0)
(1.29742e-14 -6.76526e-15 0)
(1.34529e-13 -5.18606e-15 0)
(-1.40241e-13 -4.50469e-15 0)
(-1.48995e-14 -6.00769e-15 0)
(-1.8021e-14 -8.21525e-15 0)
(-2.20055e-14 -1.15543e-14 0)
(-2.6996e-14 -1.67577e-14 0)
(-3.28628e-14 -2.50824e-14 0)
(-3.85696e-14 -3.85696e-14 0)
(-4.09335e-14 -5.98544e-14 0)
(-3.40181e-14 -8.93089e-14 0)
(-1.36687e-14 -1.15789e-13 0)
(1.36687e-14 -1.15789e-13 0)
(3.40181e-14 -8.93089e-14 0)
(4.09335e-14 -5.98544e-14 0)
(3.85696e-14 -3.85696e-14 0)
(3.28628e-14 -2.50824e-14 0)
(2.6996e-14 -1.67577e-14 0)
(2.20055e-14 -1.15543e-14 0)
(1.8021e-14 -8.21525e-15 0)
(1.48995e-14 -6.00769e-15 0)
(1.40241e-13 -4.50469e-15 0)
(-1.45041e-13 -3.51488e-15 0)
(-1.66848e-14 -4.7778e-15 0)
(-2.076e-14 -6.7024e-15 0)
(-2.63714e-14 -9.76289e-15 0)
(-3.42331e-14 -1.48773e-14 0)
(-4.52522e-14 -2.39233e-14 0)
(-5.98544e-14 -4.09335e-14 0)
(-7.46626e-14 -7.46626e-14 0)
(-7.3911e-14 -1.41074e-13 0)
(-3.32666e-14 -2.36222e-13 0)
(3.32666e-14 -2.36222e-13 0)
(7.3911e-14 -1.41074e-13 0)
(7.46626e-14 -7.46626e-14 0)
(5.98544e-14 -4.09335e-14 0)
(4.52522e-14 -2.39233e-14 0)
(3.42331e-14 -1.48773e-14 0)
(2.63714e-14 -9.76289e-15 0)
(2.076e-14 -6.7024e-15 0)
(1.66848e-14 -4.7778e-15 0)
(1.45041e-13 -3.51488e-15 0)
(-1.48533e-13 -2.24345e-15 0)
(-1.8087e-14 -3.09288e-15 0)
(-2.30061e-14 -4.42354e-15 0)
(-3.01804e-14 -6.62247e-15 0)
(-4.11564e-14 -1.05068e-14 0)
(-5.89191e-14 -1.79767e-14 0)
(-8.93089e-14 -3.40181e-14 0)
(-1.41074e-13 -7.3911e-14 0)
(-1.95578e-13 -1.95578e-13 0)
(-1.08817e-13 -6.9052e-13 0)
(1.08817e-13 -6.9052e-13 0)
(1.95578e-13 -1.95578e-13 0)
(1.41074e-13 -7.3911e-14 0)
(8.93089e-14 -3.40181e-14 0)
(5.89191e-14 -1.79767e-14 0)
(4.11564e-14 -1.05068e-14 0)
(3.01804e-14 -6.62247e-15 0)
(2.30061e-14 -4.42354e-15 0)
(1.8087e-14 -3.09288e-15 0)
(1.48533e-13 -2.24345e-15 0)
(-1.50378e-13 -7.7203e-16 0)
(-1.88649e-14 -1.07239e-15 0)
(-2.42895e-14 -1.54994e-15 0)
(-3.24547e-14 -2.35582e-15 0)
(-4.55873e-14 -3.8242e-15 0)
(-6.87635e-14 -6.78677e-15 0)
(-1.15789e-13 -1.36687e-14 0)
(-2.36222e-13 -3.32666e-14 0)
(-6.9052e-13 -1.08817e-13 0)
(-5.28209e-13 -5.28209e-13 0)
(5.28209e-13 -5.28209e-13 0)
(6.9052e-13 -1.08817e-13 0)
(2.36222e-13 -3.32666e-14 0)
(1.15789e-13 -1.36687e-14 0)
(6.87635e-14 -6.78677e-15 0)
(4.55873e-14 -3.8242e-15 0)
(3.24547e-14 -2.35582e-15 0)
(2.42895e-14 -1.54994e-15 0)
(1.88649e-14 -1.07239e-15 0)
(1.50378e-13 -7.7203e-16 0)
(-1.50378e-13 7.7203e-16 0)
(-1.88649e-14 1.07239e-15 0)
(-2.42895e-14 1.54994e-15 0)
(-3.24547e-14 2.35582e-15 0)
(-4.55873e-14 3.8242e-15 0)
(-6.87635e-14 6.78677e-15 0)
(-1.15789e-13 1.36687e-14 0)
(-2.36222e-13 3.32666e-14 0)
(-6.9052e-13 1.08817e-13 0)
(-5.28209e-13 5.28209e-13 0)
(5.28209e-13 5.28209e-13 0)
(6.9052e-13 1.08817e-13 0)
(2.36222e-13 3.32666e-14 0)
(1.15789e-13 1.36687e-14 0)
(6.87635e-14 6.78677e-15 0)
(4.55873e-14 3.8242e-15 0)
(3.24547e-14 2.35582e-15 0)
(2.42895e-14 1.54994e-15 0)
(1.88649e-14 1.07239e-15 0)
(1.50378e-13 7.7203e-16 0)
(-1.48533e-13 2.24345e-15 0)
(-1.8087e-14 3.09288e-15 0)
(-2.30061e-14 4.42354e-15 0)
(-3.01804e-14 6.62247e-15 0)
(-4.11564e-14 1.05068e-14 0)
(-5.89191e-14 1.79767e-14 0)
(-8.93089e-14 3.40181e-14 0)
(-1.41074e-13 7.3911e-14 0)
(-1.95578e-13 1.95578e-13 0)
(-1.08817e-13 6.9052e-13 0)
(1.08817e-13 6.9052e-13 0)
(1.95578e-13 1.95578e-13 0)
(1.41074e-13 7.3911e-14 0)
(8.93089e-14 3.40181e-14 0)
(5.89191e-14 1.79767e-14 0)
(4.11564e-14 1.05068e-14 0)
(3.01804e-14 6.62247e-15 0)
(2.30061e-14 4.42354e-15 0)
(1.8087e-14 3.09288e-15 0)
(1.48533e-13 2.24345e-15 0)
(-1.45041e-13 3.51488e-15 0)
(-1.66848e-14 4.7778e-15 0)
(-2.076e-14 6.7024e-15 0)
(-2.63714e-14 9.76289e-15 0)
(-3.42331e-14 1.48773e-14 0)
(-4.52522e-14 2.39233e-14 0)
(-5.98544e-14 4.09335e-14 0)
(-7.46626e-14 7.46626e-14 0)
(-7.3911e-14 1.41074e-13 0)
(-3.32666e-14 2.36222e-13 0)
(3.32666e-14 2.36222e-13 0)
(7.3911e-14 1.41074e-13 0)
(7.46626e-14 7.46626e-14 0)
(5.98544e-14 4.09335e-14 0)
(4.52522e-14 2.39233e-14 0)
(3.42331e-14 1.48773e-14 0)
(2.63714e-14 9.76289e-15 0)
(2.076e-14 6.7024e-15 0)
(1.66848e-14 4.7778e-15 0)
(1.45041e-13 3.51488e-15 0)
(-1.40241e-13 4.50469e-15 0)
(-1.48995e-14 6.00769e-15 0)
(-1.8021e-14 8.21525e-15 0)
(-2.20055e-14 1.15543e-14 0)
(-2.6996e-14 1.67577e-14 0)
(-3.28628e-14 2.50824e-14 0)
(-3.85696e-14 3.85696e-14 0)
(-4.09335e-14 5.98544e-14 0)
(-3.40181e-14 8.93089e-14 0)
(-1.36687e-14 1.15789e-13 0)
(1.36687e-14 1.15789e-13 0)
(3.40181e-14 8.93089e-14 0)
(4.09335e-14 5.98544e-14 0)
(3.85696e-14 3.85696e-14 0)
(3.28628e-14 2.50824e-14 0)
(2.6996e-14 1.67577e-14 0)
(2.20055e-14 1.15543e-14 0)
(1.8021e-14 8.21525e-15 0)
(1.48995e-14 6.00769e-15 0)
(1.40241e-13 4.50469e-15 0)
(-1.34529e-13 5.18606e-15 0)
(-1.29742e-14 6.76526e-15 0)
(-1.52134e-14 8.98892e-15 0)
(-1.78289e-14 1.21708e-14 0)
(-2.0705e-14 1.67756e-14 0)
(-2.34403e-14 2.34403e-14 0)
(-2.50824e-14 3.28628e-14 0)
(-2.39233e-14 4.52522e-14 0)
(-1.79767e-14 5.89191e-14 0)
(-6.78677e-15 6.87635e-14 0)
(6.78677e-15 6.87635e-14 0)
(1.79767e-14 5.89191e-14 0)
(2.39233e-14 4.52522e-14 0)
(2.50824e-14 3.28628e-14 0)
(2.34403e-14 2.34403e-14 0)
(2.0705e-14 1.67756e-14 0)
(1.78289e-14 1.21708e-14 0)
(1.52134e-14 8.98892e-15 0)
(1.29742e-14 6.76526e-15 0)
(1.34529e-13 5.18606e-15 0)
(-1.28289e-13 5.57821e-15 0)
(-1.10966e-14 7.10883e-15 0)
(-1.26154e-14 9.17141e-15 0)
(-1.42189e-14 1.1963e-14 0)
(-1.57265e-14 1.57265e-14 0)
(-1.67756e-14 2.0705e-14 0)
(-1.67577e-14 2.6996e-14 0)
(-1.48773e-14 3.42331e-14 0)
(-1.05068e-14 4.11564e-14 0)
(-3.8242e-15 4.55873e-14 0)
(3.8242e-15 4.55873e-14 0)
(1.05068e-14 4.11564e-14 0)
(1.48773e-14 3.42331e-14 0)
(1.67577e-14 2.6996e-14 0)
(1.67756e-14 2.0705e-14 0)
(1.57265e-14 1.57265e-14 0)
(1.42189e-14 1.1963e-14 0)
(1.26154e-14 9.17141e-15 0)
(1.10966e-14 7.10883e-15 0)
(1.28289e-13 5.57821e-15 0)
(-1.21842e-13 5.72849e-15 0)
(-9.38104e-15 7.13285e-15 0)
(-1.03592e-14 8.94568e-15 0)
(-1.12739e-14 1.12739e-14 0)
(-1.1963e-14 1.42189e-14 0)
(-1.21708e-14 1.78289e-14 0)
(-1.15543e-14 2.20055e-14 0)
(-9.76289e-15 2.63714e-14 0)
(-6.62247e-15 3.01804e-14 0)
(-2.35582e-15 3.24547e-14 0)
(2.35582e-15 3.24547e-14 0)
(6.62247e-15 3.01804e-14 0)
(9.76289e-15 2.63714e-14 0)
(1.15543e-14 2.20055e-14 0)
(1.21708e-14 1.78289e-14 0)
(1.1963e-14 1.42189e-14 0)
(1.12739e-14 1.12739e-14 0)
(1.03592e-14 8.94568e-15 0)
(9.38104e-15 7.13285e-15 0)
(1.21842e-13 5.72849e-15 0)
(-1.15428e-13 5.69452e-15 0)
(-7.87941e-15 6.93561e-15 0)
(-8.47444e-15 8.47444e-15 0)
(-8.94568e-15 1.03592e-14 0)
(-9.17141e-15 1.26154e-14 0)
(-8.98892e-15 1.52134e-14 0)
(-8.21525e-15 1.8021e-14 0)
(-6.7024e-15 2.076e-14 0)
(-4.42354e-15 2.30061e-14 0)
(-1.54994e-15 2.42895e-14 0)
(1.54994e-15 2.42895e-14 0)
(4.42354e-15 2.30061e-14 0)
(6.7024e-15 2.076e-14 0)
(8.21525e-15 1.8021e-14 0)
(8.98892e-15 1.52134e-14 0)
(9.17141e-15 1.26154e-14 0)
(8.94568e-15 1.03592e-14 0)
(8.47444e-15 8.47444e-15 0)
(7.87941e-15 6.93561e-15 0)
(1.15428e-13 5.69452e-15 0)
(-1.09212e-13 5.53166e-15 0)
(-6.60111e-15 6.60111e-15 0)
(-6.93561e-15 7.87941e-15 0)
(-7.13285e-15 9.38104e-15 0)
(-7.10883e-15 1.10966e-14 0)
(-6.76526e-15 1.29742e-14 0)
(-6.00769e-15 1.48995e-14 0)
(-4.7778e-15 1.66848e-14 0)
(-3.09288e-15 1.8087e-14 0)
(-1.07239e-15 1.88649e-14 0)
(1.07239e-15 1.88649e-14 0)
(3.09288e-15 1.8087e-14 0)
(4.7778e-15 1.66848e-14 0)
(6.00769e-15 1.48995e-14 0)
(6.76526e-15 1.29742e-14 0)
(7.10883e-15 1.10966e-14 0)
(7.13285e-15 9.38104e-15 0)
(6.93561e-15 7.87941e-15 0)
(6.60111e-15 6.60111e-15 0)
(1.09212e-13 5.53166e-15 0)
(-1.03295e-13 1.03295e-13 0)
(-5.53166e-15 1.09212e-13 0)
(-5.69452e-15 1.15428e-13 0)
(-5.72849e-15 1.21842e-13 0)
(-5.57821e-15 1.28289e-13 0)
(-5.18606e-15 1.34529e-13 0)
(-4.50469e-15 1.40241e-13 0)
(-3.51488e-15 1.45041e-13 0)
(-2.24345e-15 1.48533e-13 0)
(-7.7203e-16 1.50378e-13 0)
(7.7203e-16 1.50378e-13 0)
(2.24345e-15 1.48533e-13 0)
(3.51488e-15 1.45041e-13 0)
(4.50469e-15 1.40241e-13 0)
(5.18606e-15 1.34529e-13 0)
(5.57821e-15 1.28289e-13 0)
(5.72849e-15 1.21842e-13 0)
(5.69452e-15 1.15428e-13 0)
(5.53166e-15 1.09212e-13 0)
(1.03295e-13 1.03295e-13 0)
)
;

boundaryField
{
    movingWall
    {
        type            fixedValue;
        value           uniform (1 0 0);
    }
    fixedWalls
    {
        type            fixedValue;
        value           uniform (0 0 0);
    }
    frontAndBack
    {
        type            empty;
    }
}


// ************************************************************************* //
