/*--------------------------------*- C++ -*----------------------------------*\
| =========                 |                                                 |
| \\      /  F ield         | OpenFOAM: The Open Source CFD Toolbox           |
|  \\    /   O peration     | Version:  v2012                                 |
|   \\  /    A nd           | Website:  www.openfoam.com                      |
|    \\/     M anipulation  |                                                 |
\*---------------------------------------------------------------------------*/
FoamFile
{
    version     2.0;
    format      ascii;
    class       volVectorField;
    location    "3";
    object      U;
}
// * * * * * * * * * * * * * * * * * * * * * * * * * * * * * * * * * * * * * //

dimensions      [0 1 -1 0 0 0 0];


internalField   nonuniform List<vector> 
400
(
(-3.9007e-12 -3.9007e-12 0)
(-2.0889e-13 -4.12413e-12 0)
(-2.1504e-13 -4.35887e-12 0)
(-2.16323e-13 -4.60108e-12 0)
(-2.10648e-13 -4.84454e-12 0)
(-1.95839e-13 -5.08017e-12 0)
(-1.70109e-13 -5.29586e-12 0)
(-1.32731e-13 -5.47715e-12 0)
(-8.47186e-14 -5.60901e-12 0)
(-2.91539e-14 -5.67866e-12 0)
(2.91539e-14 -5.67866e-12 0)
(8.47186e-14 -5.60901e-12 0)
(1.32731e-13 -5.47715e-12 0)
(1.70109e-13 -5.29586e-12 0)
(1.95839e-13 -5.08017e-12 0)
(2.10648e-13 -4.84454e-12 0)
(2.16323e-13 -4.60108e-12 0)
(2.1504e-13 -4.35887e-12 0)
(2.0889e-13 -4.12413e-12 0)
(3.9007e-12 -3.9007e-12 0)
(-4.12413e-12 -2.0889e-13 0)
(-2.49275e-13 -2.49275e-13 0)
(-2.61907e-13 -2.97547e-13 0)
(-2.69355e-13 -3.54253e-13 0)
(-2.68448e-13 -4.19037e-13 0)
(-2.55474e-13 -4.89941e-13 0)
(-2.26866e-13 -5.62643e-13 0)
(-1.80422e-13 -6.30062e-13 0)
(-1.16795e-13 -6.83012e-13 0)
(-4.04962e-14 -7.12388e-13 0)
(4.04962e-14 -7.12388e-13 0)
(1.16795e-13 -6.83012e-13 0)
(1.80422e-13 -6.30062e-13 0)
(2.26866e-13 -5.62643e-13 0)
(2.55474e-13 -4.89941e-13 0)
(2.68448e-13 -4.19037e-13 0)
(2.69355e-13 -3.54253e-13 0)
(2.61907e-13 -2.97547e-13 0)
(2.49275e-13 -2.49275e-13 0)
(4.12413e-12 -2.0889e-13 0)
(-4.35887e-12 -2.1504e-13 0)
(-2.97547e-13 -2.61907e-13 0)
(-3.20017e-13 -3.20017e-13 0)
(-3.37812e-13 -3.91191e-13 0)
(-3.46337e-13 -4.76393e-13 0)
(-3.39445e-13 -5.74497e-13 0)
(-3.1023e-13 -6.80521e-13 0)
(-2.531e-13 -7.83951e-13 0)
(-1.67044e-13 -8.68771e-13 0)
(-5.85296e-14 -9.17237e-13 0)
(5.85296e-14 -9.17237e-13 0)
(1.67044e-13 -8.68771e-13 0)
(2.531e-13 -7.83951e-13 0)
(3.1023e-13 -6.80521e-13 0)
(3.39445e-13 -5.74497e-13 0)
(3.46337e-13 -4.76393e-13 0)
(3.37812e-13 -3.91191e-13 0)
(3.20017e-13 -3.20017e-13 0)
(2.97547e-13 -2.61907e-13 0)
(4.35887e-12 -2.1504e-13 0)
(-4.60108e-12 -2.16323e-13 0)
(-3.54253e-13 -2.69355e-13 0)
(-3.91191e-13 -3.37812e-13 0)
(-4.2573e-13 -4.2573e-13 0)
(-4.51754e-13 -5.36943e-13 0)
(-4.59603e-13 -6.73267e-13 0)
(-4.3632e-13 -8.30987e-13 0)
(-3.68672e-13 -9.95852e-13 0)
(-2.50082e-13 -1.13969e-12 0)
(-8.89621e-14 -1.22557e-12 0)
(8.89621e-14 -1.22557e-12 0)
(2.50082e-13 -1.13969e-12 0)
(3.68672e-13 -9.95852e-13 0)
(4.3632e-13 -8.30987e-13 0)
(4.59603e-13 -6.73267e-13 0)
(4.51754e-13 -5.36943e-13 0)
(4.2573e-13 -4.2573e-13 0)
(3.91191e-13 -3.37812e-13 0)
(3.54253e-13 -2.69355e-13 0)
(4.60108e-12 -2.16323e-13 0)
(-4.84454e-12 -2.10648e-13 0)
(-4.19037e-13 -2.68448e-13 0)
(-4.76393e-13 -3.46337e-13 0)
(-5.36943e-13 -4.51754e-13 0)
(-5.93873e-13 -5.93873e-13 0)
(-6.3349e-13 -7.81875e-13 0)
(-6.32814e-13 -1.01944e-12 0)
(-5.61805e-13 -1.29273e-12 0)
(-3.96766e-13 -1.55417e-12 0)
(-1.44412e-13 -1.7215e-12 0)
(1.44412e-13 -1.7215e-12 0)
(3.96766e-13 -1.55417e-12 0)
(5.61805e-13 -1.29273e-12 0)
(6.32814e-13 -1.01944e-12 0)
(6.3349e-13 -7.81875e-13 0)
(5.93873e-13 -5.93873e-13 0)
(5.36943e-13 -4.51754e-13 0)
(4.76393e-13 -3.46337e-13 0)
(4.19037e-13 -2.68448e-13 0)
(4.84454e-12 -2.10648e-13 0)
(-5.08017e-12 -1.95839e-13 0)
(-4.89941e-13 -2.55474e-13 0)
(-5.74497e-13 -3.39445e-13 0)
(-6.73267e-13 -4.59603e-13 0)
(-7.81875e-13 -6.3349e-13 0)
(-8.85169e-13 -8.85169e-13 0)
(-9.47176e-13 -1.24099e-12 0)
(-9.03407e-13 -1.70884e-12 0)
(-6.78849e-13 -2.22494e-12 0)
(-2.56286e-13 -2.59669e-12 0)
(2.56286e-13 -2.59669e-12 0)
(6.78849e-13 -2.22494e-12 0)
(9.03407e-13 -1.70884e-12 0)
(9.47176e-13 -1.24099e-12 0)
(8.85169e-13 -8.85169e-13 0)
(7.81875e-13 -6.3349e-13 0)
(6.73267e-13 -4.59603e-13 0)
(5.74497e-13 -3.39445e-13 0)
(4.89941e-13 -2.55474e-13 0)
(5.08017e-12 -1.95839e-13 0)
(-5.29586e-12 -1.70109e-13 0)
(-5.62643e-13 -2.26866e-13 0)
(-6.80521e-13 -3.1023e-13 0)
(-8.30987e-13 -4.3632e-13 0)
(-1.01944e-12 -6.32814e-13 0)
(-1.24099e-12 -9.47176e-13 0)
(-1.45649e-12 -1.45649e-12 0)
(-1.54576e-12 -2.26026e-12 0)
(-1.28461e-12 -3.37254e-12 0)
(-5.16164e-13 -4.37248e-12 0)
(5.16164e-13 -4.37248e-12 0)
(1.28461e-12 -3.37254e-12 0)
(1.54576e-12 -2.26026e-12 0)
(1.45649e-12 -1.45649e-12 0)
(1.24099e-12 -9.47176e-13 0)
(1.01944e-12 -6.32814e-13 0)
(8.30987e-13 -4.3632e-13 0)
(6.80521e-13 -3.1023e-13 0)
(5.62643e-13 -2.26866e-13 0)
(5.29586e-12 -1.70109e-13 0)
(-5.47715e-12 -1.32731e-13 0)
(-6.30062e-13 -1.80422e-13 0)
(-7.83951e-13 -2.531e-13 0)
(-9.95852e-13 -3.68672e-13 0)
(-1.29273e-12 -5.61805e-13 0)
(-1.70884e-12 -9.03407e-13 0)
(-2.26026e-12 -1.54576e-12 0)
(-2.81946e-12 -2.81946e-12 0)
(-2.79107e-12 -5.32732e-12 0)
(-1.25623e-12 -8.92037e-12 0)
(1.25623e-12 -8.92037e-12 0)
(2.79107e-12 -5.32732e-12 0)
(2.81946e-12 -2.81946e-12 0)
(2.26026e-12 -1.54576e-12 0)
(1.70884e-12 -9.03407e-13 0)
(1.29273e-12 -5.61805e-13 0)
(9.95852e-13 -3.68672e-13 0)
(7.83951e-13 -2.531e-13 0)
(6.30062e-13 -1.80422e-13 0)
(5.47715e-12 -1.32731e-13 0)
(-5.60901e-12 -8.47186e-14 0)
(-6.83012e-13 -1.16795e-13 0)
(-8.68771e-13 -1.67044e-13 0)
(-1.13969e-12 -2.50082e-13 0)
(-1.55417e-12 -3.96766e-13 0)
(-2.22494e-12 -6.78849e-13 0)
(-3.37254e-12 -1.28461e-12 0)
(-5.32732e-12 -2.79107e-12 0)
(-7.38553e-12 -7.38553e-12 0)
(-4.10922e-12 -2.60758e-11 0)
(4.10922e-12 -2.60758e-11 0)
(7.38553e-12 -7.38553e-12 0)
(5.32732e-12 -2.79107e-12 0)
(3.37254e-12 -1.28461e-12 0)
(2.22494e-12 -6.78849e-13 0)
(1.55417e-12 -3.96766e-13 0)
(1.13969e-12 -2.50082e-13 0)
(8.68771e-13 -1.67044e-13 0)
(6.83012e-13 -1.16795e-13 0)
(5.60901e-12 -8.47186e-14 0)
(-5.67866e-12 -2.91539e-14 0)
(-7.12388e-13 -4.04962e-14 0)
(-9.17237e-13 -5.85296e-14 0)
(-1.22557e-12 -8.89621e-14 0)
(-1.7215e-12 -1.44412e-13 0)
(-2.59669e-12 -2.56286e-13 0)
(-4.37248e-12 -5.16164e-13 0)
(-8.92037e-12 -1.25623e-12 0)
(-2.60758e-11 -4.10922e-12 0)
(-1.99466e-11 -1.99466e-11 0)
(1.99466e-11 -1.99466e-11 0)
(2.60758e-11 -4.10922e-12 0)
(8.92037e-12 -1.25623e-12 0)
(4.37248e-12 -5.16164e-13 0)
(2.59669e-12 -2.56286e-13 0)
(1.7215e-12 -1.44412e-13 0)
(1.22557e-12 -8.89621e-14 0)
(9.17237e-13 -5.85296e-14 0)
(7.12388e-13 -4.04962e-14 0)
(5.67866e-12 -2.91539e-14 0)
(-5.67866e-12 2.91539e-14 0)
(-7.12388e-13 4.04962e-14 0)
(-9.17237e-13 5.85296e-14 0)
(-1.22557e-12 8.89621e-14 0)
(-1.7215e-12 1.44412e-13 0)
(-2.59669e-12 2.56286e-13 0)
(-4.37248e-12 5.16164e-13 0)
(-8.92037e-12 1.25623e-12 0)
(-2.60758e-11 4.10922e-12 0)
(-1.99466e-11 1.99466e-11 0)
(1.99466e-11 1.99466e-11 0)
(2.60758e-11 4.10922e-12 0)
(8.92037e-12 1.25623e-12 0)
(4.37248e-12 5.16164e-13 0)
(2.59669e-12 2.56286e-13 0)
(1.7215e-12 1.44412e-13 0)
(1.22557e-12 8.89621e-14 0)
(9.17237e-13 5.85296e-14 0)
(7.12388e-13 4.04962e-14 0)
(5.67866e-12 2.91539e-14 0)
(-5.60901e-12 8.47186e-14 0)
(-6.83012e-13 1.16795e-13 0)
(-8.68771e-13 1.67044e-13 0)
(-1.13969e-12 2.50082e-13 0)
(-1.55417e-12 3.96766e-13 0)
(-2.22494e-12 6.78849e-13 0)
(-3.37254e-12 1.28461e-12 0)
(-5.32732e-12 2.79107e-12 0)
(-7.38553e-12 7.38553e-12 0)
(-4.10922e-12 2.60758e-11 0)
(4.10922e-12 2.60758e-11 0)
(7.38553e-12 7.38553e-12 0)
(5.32732e-12 2.79107e-12 0)
(3.37254e-12 1.28461e-12 0)
(2.22494e-12 6.78849e-13 0)
(1.55417e-12 3.96766e-13 0)
(1.13969e-12 2.50082e-13 0)
(8.68771e-13 1.67044e-13 0)
(6.83012e-13 1.16795e-13 0)
(5.60901e-12 8.47186e-14 0)
(-5.47715e-12 1.32731e-13 0)
(-6.30062e-13 1.80422e-13 0)
(-7.83951e-13 2.531e-13 0)
(-9.95852e-13 3.68672e-13 0)
(-1.29273e-12 5.61805e-13 0)
(-1.70884e-12 9.03407e-13 0)
(-2.26026e-12 1.54576e-12 0)
(-2.81946e-12 2.81946e-12 0)
(-2.79107e-12 5.32732e-12 0)
(-1.25623e-12 8.92037e-12 0)
(1.25623e-12 8.92037e-12 0)
(2.79107e-12 5.32732e-12 0)
(2.81946e-12 2.81946e-12 0)
(2.26026e-12 1.54576e-12 0)
(1.70884e-12 9.03407e-13 0)
(1.29273e-12 5.61805e-13 0)
(9.95852e-13 3.68672e-13 0)
(7.83951e-13 2.531e-13 0)
(6.30062e-13 1.80422e-13 0)
(5.47715e-12 1.32731e-13 0)
(-5.29586e-12 1.70109e-13 0)
(-5.62643e-13 2.26866e-13 0)
(-6.80521e-13 3.1023e-13 0)
(-8.30987e-13 4.3632e-13 0)
(-1.01944e-12 6.32814e-13 0)
(-1.24099e-12 9.47176e-13 0)
(-1.45649e-12 1.45649e-12 0)
(-1.54576e-12 2.26026e-12 0)
(-1.28461e-12 3.37254e-12 0)
(-5.16164e-13 4.37248e-12 0)
(5.16164e-13 4.37248e-12 0)
(1.28461e-12 3.37254e-12 0)
(1.54576e-12 2.26026e-12 0)
(1.45649e-12 1.45649e-12 0)
(1.24099e-12 9.47176e-13 0)
(1.01944e-12 6.32814e-13 0)
(8.30987e-13 4.3632e-13 0)
(6.80521e-13 3.1023e-13 0)
(5.62643e-13 2.26866e-13 0)
(5.29586e-12 1.70109e-13 0)
(-5.08017e-12 1.95839e-13 0)
(-4.89941e-13 2.55474e-13 0)
(-5.74497e-13 3.39445e-13 0)
(-6.73267e-13 4.59603e-13 0)
(-7.81875e-13 6.3349e-13 0)
(-8.85169e-13 8.85169e-13 0)
(-9.47176e-13 1.24099e-12 0)
(-9.03407e-13 1.70884e-12 0)
(-6.78849e-13 2.22494e-12 0)
(-2.56286e-13 2.59669e-12 0)
(2.56286e-13 2.59669e-12 0)
(6.78849e-13 2.22494e-12 0)
(9.03407e-13 1.70884e-12 0)
(9.47176e-13 1.24099e-12 0)
(8.85169e-13 8.85169e-13 0)
(7.81875e-13 6.3349e-13 0)
(6.73267e-13 4.59603e-13 0)
(5.74497e-13 3.39445e-13 0)
(4.89941e-13 2.55474e-13 0)
(5.08017e-12 1.95839e-13 0)
(-4.84454e-12 2.10648e-13 0)
(-4.19037e-13 2.68448e-13 0)
(-4.76393e-13 3.46337e-13 0)
(-5.36943e-13 4.51754e-13 0)
(-5.93873e-13 5.93873e-13 0)
(-6.3349e-13 7.81875e-13 0)
(-6.32814e-13 1.01944e-12 0)
(-5.61805e-13 1.29273e-12 0)
(-3.96766e-13 1.55417e-12 0)
(-1.44412e-13 1.7215e-12 0)
(1.44412e-13 1.7215e-12 0)
(3.96766e-13 1.55417e-12 0)
(5.61805e-13 1.29273e-12 0)
(6.32814e-13 1.01944e-12 0)
(6.3349e-13 7.81875e-13 0)
(5.93873e-13 5.93873e-13 0)
(5.36943e-13 4.51754e-13 0)
(4.76393e-13 3.46337e-13 0)
(4.19037e-13 2.68448e-13 0)
(4.84454e-12 2.10648e-13 0)
(-4.60108e-12 2.16323e-13 0)
(-3.54253e-13 2.69355e-13 0)
(-3.91191e-13 3.37812e-13 0)
(-4.2573e-13 4.2573e-13 0)
(-4.51754e-13 5.36943e-13 0)
(-4.59603e-13 6.73267e-13 0)
(-4.3632e-13 8.30987e-13 0)
(-3.68672e-13 9.95852e-13 0)
(-2.50082e-13 1.13969e-12 0)
(-8.89621e-14 1.22557e-12 0)
(8.89621e-14 1.22557e-12 0)
(2.50082e-13 1.13969e-12 0)
(3.68672e-13 9.95852e-13 0)
(4.3632e-13 8.30987e-13 0)
(4.59603e-13 6.73267e-13 0)
(4.51754e-13 5.36943e-13 0)
(4.2573e-13 4.2573e-13 0)
(3.91191e-13 3.37812e-13 0)
(3.54253e-13 2.69355e-13 0)
(4.60108e-12 2.16323e-13 0)
(-4.35887e-12 2.1504e-13 0)
(-2.97547e-13 2.61907e-13 0)
(-3.20017e-13 3.20017e-13 0)
(-3.37812e-13 3.91191e-13 0)
(-3.46337e-13 4.76393e-13 0)
(-3.39445e-13 5.74497e-13 0)
(-3.1023e-13 6.80521e-13 0)
(-2.531e-13 7.83951e-13 0)
(-1.67044e-13 8.68771e-13 0)
(-5.85296e-14 9.17237e-13 0)
(5.85296e-14 9.17237e-13 0)
(1.67044e-13 8.68771e-13 0)
(2.531e-13 7.83951e-13 0)
(3.1023e-13 6.80521e-13 0)
(3.39445e-13 5.74497e-13 0)
(3.46337e-13 4.76393e-13 0)
(3.37812e-13 3.91191e-13 0)
(3.20017e-13 3.20017e-13 0)
(2.97547e-13 2.61907e-13 0)
(4.35887e-12 2.1504e-13 0)
(-4.12413e-12 2.0889e-13 0)
(-2.49275e-13 2.49275e-13 0)
(-2.61907e-13 2.97547e-13 0)
(-2.69355e-13 3.54253e-13 0)
(-2.68448e-13 4.19037e-13 0)
(-2.55474e-13 4.89941e-13 0)
(-2.26866e-13 5.62643e-13 0)
(-1.80422e-13 6.30062e-13 0)
(-1.16795e-13 6.83012e-13 0)
(-4.04962e-14 7.12388e-13 0)
(4.04962e-14 7.12388e-13 0)
(1.16795e-13 6.83012e-13 0)
(1.80422e-13 6.30062e-13 0)
(2.26866e-13 5.62643e-13 0)
(2.55474e-13 4.89941e-13 0)
(2.68448e-13 4.19037e-13 0)
(2.69355e-13 3.54253e-13 0)
(2.61907e-13 2.97547e-13 0)
(2.49275e-13 2.49275e-13 0)
(4.12413e-12 2.0889e-13 0)
(-3.9007e-12 3.9007e-12 0)
(-2.0889e-13 4.12413e-12 0)
(-2.1504e-13 4.35887e-12 0)
(-2.16323e-13 4.60108e-12 0)
(-2.10648e-13 4.84454e-12 0)
(-1.95839e-13 5.08017e-12 0)
(-1.70109e-13 5.29586e-12 0)
(-1.32731e-13 5.47715e-12 0)
(-8.47186e-14 5.60901e-12 0)
(-2.91539e-14 5.67866e-12 0)
(2.91539e-14 5.67866e-12 0)
(8.47186e-14 5.60901e-12 0)
(1.32731e-13 5.47715e-12 0)
(1.70109e-13 5.29586e-12 0)
(1.95839e-13 5.08017e-12 0)
(2.10648e-13 4.84454e-12 0)
(2.16323e-13 4.60108e-12 0)
(2.1504e-13 4.35887e-12 0)
(2.0889e-13 4.12413e-12 0)
(3.9007e-12 3.9007e-12 0)
)
;

boundaryField
{
    movingWall
    {
        type            fixedValue;
        value           uniform (1 0 0);
    }
    fixedWalls
    {
        type            fixedValue;
        value           uniform (0 0 0);
    }
    frontAndBack
    {
        type            empty;
    }
}


// ************************************************************************* //
