/*--------------------------------*- C++ -*----------------------------------*\
| =========                 |                                                 |
| \\      /  F ield         | OpenFOAM: The Open Source CFD Toolbox           |
|  \\    /   O peration     | Version:  v2012                                 |
|   \\  /    A nd           | Website:  www.openfoam.com                      |
|    \\/     M anipulation  |                                                 |
\*---------------------------------------------------------------------------*/
FoamFile
{
    version     2.0;
    format      ascii;
    class       volVectorField;
    location    "1";
    object      U;
}
// * * * * * * * * * * * * * * * * * * * * * * * * * * * * * * * * * * * * * //

dimensions      [0 1 -1 0 0 0 0];


internalField   nonuniform List<vector> 
400
(
(-5.16476e-14 -5.16476e-14 0)
(-2.76583e-15 -5.46059e-14 0)
(-2.84726e-15 -5.7714e-14 0)
(-2.86425e-15 -6.0921e-14 0)
(-2.78911e-15 -6.41447e-14 0)
(-2.59303e-15 -6.72645e-14 0)
(-2.25235e-15 -7.01203e-14 0)
(-1.75744e-15 -7.25207e-14 0)
(-1.12173e-15 -7.42667e-14 0)
(-3.86015e-16 -7.51889e-14 0)
(3.86015e-16 -7.51889e-14 0)
(1.12173e-15 -7.42667e-14 0)
(1.75744e-15 -7.25207e-14 0)
(2.25235e-15 -7.01203e-14 0)
(2.59303e-15 -6.72645e-14 0)
(2.78911e-15 -6.41447e-14 0)
(2.86425e-15 -6.0921e-14 0)
(2.84726e-15 -5.7714e-14 0)
(2.76583e-15 -5.46059e-14 0)
(5.16476e-14 -5.16476e-14 0)
(-5.46059e-14 -2.76583e-15 0)
(-3.30056e-15 -3.30056e-15 0)
(-3.46781e-15 -3.93971e-15 0)
(-3.56642e-15 -4.69052e-15 0)
(-3.55441e-15 -5.5483e-15 0)
(-3.38263e-15 -6.48712e-15 0)
(-3.00384e-15 -7.44973e-15 0)
(-2.3889e-15 -8.3424e-15 0)
(-1.54644e-15 -9.04349e-15 0)
(-5.36195e-16 -9.43244e-15 0)
(5.36195e-16 -9.43244e-15 0)
(1.54644e-15 -9.04349e-15 0)
(2.3889e-15 -8.3424e-15 0)
(3.00384e-15 -7.44973e-15 0)
(3.38263e-15 -6.48712e-15 0)
(3.55441e-15 -5.5483e-15 0)
(3.56642e-15 -4.69052e-15 0)
(3.46781e-15 -3.93971e-15 0)
(3.30056e-15 -3.30056e-15 0)
(5.46059e-14 -2.76583e-15 0)
(-5.7714e-14 -2.84726e-15 0)
(-3.93971e-15 -3.46781e-15 0)
(-4.23722e-15 -4.23722e-15 0)
(-4.47284e-15 -5.1796e-15 0)
(-4.5857e-15 -6.30772e-15 0)
(-4.49446e-15 -7.60669e-15 0)
(-4.10763e-15 -9.01051e-15 0)
(-3.3512e-15 -1.038e-14 0)
(-2.21177e-15 -1.15031e-14 0)
(-7.74968e-16 -1.21448e-14 0)
(7.74968e-16 -1.21448e-14 0)
(2.21177e-15 -1.15031e-14 0)
(3.3512e-15 -1.038e-14 0)
(4.10763e-15 -9.01051e-15 0)
(4.49446e-15 -7.60669e-15 0)
(4.5857e-15 -6.30772e-15 0)
(4.47284e-15 -5.1796e-15 0)
(4.23722e-15 -4.23722e-15 0)
(3.93971e-15 -3.46781e-15 0)
(5.7714e-14 -2.84726e-15 0)
(-6.0921e-14 -2.86425e-15 0)
(-4.69052e-15 -3.56642e-15 0)
(-5.1796e-15 -4.47284e-15 0)
(-5.63693e-15 -5.63693e-15 0)
(-5.9815e-15 -7.10944e-15 0)
(-6.08542e-15 -8.91446e-15 0)
(-5.77714e-15 -1.10028e-14 0)
(-4.88144e-15 -1.31857e-14 0)
(-3.31123e-15 -1.50902e-14 0)
(-1.17791e-15 -1.62273e-14 0)
(1.17791e-15 -1.62273e-14 0)
(3.31123e-15 -1.50902e-14 0)
(4.88144e-15 -1.31857e-14 0)
(5.77714e-15 -1.10028e-14 0)
(6.08542e-15 -8.91446e-15 0)
(5.9815e-15 -7.10944e-15 0)
(5.63693e-15 -5.63693e-15 0)
(5.1796e-15 -4.47284e-15 0)
(4.69052e-15 -3.56642e-15 0)
(6.0921e-14 -2.86425e-15 0)
(-6.41447e-14 -2.78911e-15 0)
(-5.5483e-15 -3.55441e-15 0)
(-6.30772e-15 -4.5857e-15 0)
(-7.10944e-15 -5.9815e-15 0)
(-7.86324e-15 -7.86324e-15 0)
(-8.38778e-15 -1.03525e-14 0)
(-8.37884e-15 -1.3498e-14 0)
(-7.43863e-15 -1.71165e-14 0)
(-5.25342e-15 -2.05782e-14 0)
(-1.9121e-15 -2.27937e-14 0)
(1.9121e-15 -2.27937e-14 0)
(5.25342e-15 -2.05782e-14 0)
(7.43863e-15 -1.71165e-14 0)
(8.37884e-15 -1.3498e-14 0)
(8.38778e-15 -1.03525e-14 0)
(7.86324e-15 -7.86324e-15 0)
(7.10944e-15 -5.9815e-15 0)
(6.30772e-15 -4.5857e-15 0)
(5.5483e-15 -3.55441e-15 0)
(6.41447e-14 -2.78911e-15 0)
(-6.72645e-14 -2.59303e-15 0)
(-6.48712e-15 -3.38263e-15 0)
(-7.60669e-15 -4.49446e-15 0)
(-8.91446e-15 -6.08542e-15 0)
(-1.03525e-14 -8.38778e-15 0)
(-1.17202e-14 -1.17202e-14 0)
(-1.25412e-14 -1.64314e-14 0)
(-1.19617e-14 -2.26261e-14 0)
(-8.98837e-15 -2.94595e-14 0)
(-3.39339e-15 -3.43818e-14 0)
(3.39339e-15 -3.43818e-14 0)
(8.98837e-15 -2.94595e-14 0)
(1.19617e-14 -2.26261e-14 0)
(1.25412e-14 -1.64314e-14 0)
(1.17202e-14 -1.17202e-14 0)
(1.03525e-14 -8.38778e-15 0)
(8.91446e-15 -6.08542e-15 0)
(7.60669e-15 -4.49446e-15 0)
(6.48712e-15 -3.38263e-15 0)
(6.72645e-14 -2.59303e-15 0)
(-7.01203e-14 -2.25235e-15 0)
(-7.44973e-15 -3.00384e-15 0)
(-9.01051e-15 -4.10763e-15 0)
(-1.10028e-14 -5.77714e-15 0)
(-1.3498e-14 -8.37884e-15 0)
(-1.64314e-14 -1.25412e-14 0)
(-1.92848e-14 -1.92848e-14 0)
(-2.04668e-14 -2.99272e-14 0)
(-1.70091e-14 -4.46544e-14 0)
(-6.83433e-15 -5.78943e-14 0)
(6.83433e-15 -5.78943e-14 0)
(1.70091e-14 -4.46544e-14 0)
(2.04668e-14 -2.99272e-14 0)
(1.92848e-14 -1.92848e-14 0)
(1.64314e-14 -1.25412e-14 0)
(1.3498e-14 -8.37884e-15 0)
(1.10028e-14 -5.77714e-15 0)
(9.01051e-15 -4.10763e-15 0)
(7.44973e-15 -3.00384e-15 0)
(7.01203e-14 -2.25235e-15 0)
(-7.25207e-14 -1.75744e-15 0)
(-8.3424e-15 -2.3889e-15 0)
(-1.038e-14 -3.3512e-15 0)
(-1.31857e-14 -4.88144e-15 0)
(-1.71165e-14 -7.43863e-15 0)
(-2.26261e-14 -1.19617e-14 0)
(-2.99272e-14 -2.04668e-14 0)
(-3.73313e-14 -3.73313e-14 0)
(-3.69555e-14 -7.05369e-14 0)
(-1.66333e-14 -1.18111e-13 0)
(1.66333e-14 -1.18111e-13 0)
(3.69555e-14 -7.05369e-14 0)
(3.73313e-14 -3.73313e-14 0)
(2.99272e-14 -2.04668e-14 0)
(2.26261e-14 -1.19617e-14 0)
(1.71165e-14 -7.43863e-15 0)
(1.31857e-14 -4.88144e-15 0)
(1.038e-14 -3.3512e-15 0)
(8.3424e-15 -2.3889e-15 0)
(7.25207e-14 -1.75744e-15 0)
(-7.42667e-14 -1.12173e-15 0)
(-9.04349e-15 -1.54644e-15 0)
(-1.15031e-14 -2.21177e-15 0)
(-1.50902e-14 -3.31123e-15 0)
(-2.05782e-14 -5.25342e-15 0)
(-2.94595e-14 -8.98837e-15 0)
(-4.46544e-14 -1.70091e-14 0)
(-7.05369e-14 -3.69555e-14 0)
(-9.77888e-14 -9.77888e-14 0)
(-5.44085e-14 -3.4526e-13 0)
(5.44085e-14 -3.4526e-13 0)
(9.77888e-14 -9.77888e-14 0)
(7.05369e-14 -3.69555e-14 0)
(4.46544e-14 -1.70091e-14 0)
(2.94595e-14 -8.98837e-15 0)
(2.05782e-14 -5.25342e-15 0)
(1.50902e-14 -3.31123e-15 0)
(1.15031e-14 -2.21177e-15 0)
(9.04349e-15 -1.54644e-15 0)
(7.42667e-14 -1.12173e-15 0)
(-7.51889e-14 -3.86015e-16 0)
(-9.43244e-15 -5.36195e-16 0)
(-1.21448e-14 -7.74968e-16 0)
(-1.62273e-14 -1.17791e-15 0)
(-2.27937e-14 -1.9121e-15 0)
(-3.43818e-14 -3.39339e-15 0)
(-5.78943e-14 -6.83433e-15 0)
(-1.18111e-13 -1.66333e-14 0)
(-3.4526e-13 -5.44085e-14 0)
(-2.64104e-13 -2.64104e-13 0)
(2.64104e-13 -2.64104e-13 0)
(3.4526e-13 -5.44085e-14 0)
(1.18111e-13 -1.66333e-14 0)
(5.78943e-14 -6.83433e-15 0)
(3.43818e-14 -3.39339e-15 0)
(2.27937e-14 -1.9121e-15 0)
(1.62273e-14 -1.17791e-15 0)
(1.21448e-14 -7.74968e-16 0)
(9.43244e-15 -5.36195e-16 0)
(7.51889e-14 -3.86015e-16 0)
(-7.51889e-14 3.86015e-16 0)
(-9.43244e-15 5.36195e-16 0)
(-1.21448e-14 7.74968e-16 0)
(-1.62273e-14 1.17791e-15 0)
(-2.27937e-14 1.9121e-15 0)
(-3.43818e-14 3.39339e-15 0)
(-5.78943e-14 6.83433e-15 0)
(-1.18111e-13 1.66333e-14 0)
(-3.4526e-13 5.44085e-14 0)
(-2.64104e-13 2.64104e-13 0)
(2.64104e-13 2.64104e-13 0)
(3.4526e-13 5.44085e-14 0)
(1.18111e-13 1.66333e-14 0)
(5.78943e-14 6.83433e-15 0)
(3.43818e-14 3.39339e-15 0)
(2.27937e-14 1.9121e-15 0)
(1.62273e-14 1.17791e-15 0)
(1.21448e-14 7.74968e-16 0)
(9.43244e-15 5.36195e-16 0)
(7.51889e-14 3.86015e-16 0)
(-7.42667e-14 1.12173e-15 0)
(-9.04349e-15 1.54644e-15 0)
(-1.15031e-14 2.21177e-15 0)
(-1.50902e-14 3.31123e-15 0)
(-2.05782e-14 5.25342e-15 0)
(-2.94595e-14 8.98837e-15 0)
(-4.46544e-14 1.70091e-14 0)
(-7.05369e-14 3.69555e-14 0)
(-9.77888e-14 9.77888e-14 0)
(-5.44085e-14 3.4526e-13 0)
(5.44085e-14 3.4526e-13 0)
(9.77888e-14 9.77888e-14 0)
(7.05369e-14 3.69555e-14 0)
(4.46544e-14 1.70091e-14 0)
(2.94595e-14 8.98837e-15 0)
(2.05782e-14 5.25342e-15 0)
(1.50902e-14 3.31123e-15 0)
(1.15031e-14 2.21177e-15 0)
(9.04349e-15 1.54644e-15 0)
(7.42667e-14 1.12173e-15 0)
(-7.25207e-14 1.75744e-15 0)
(-8.3424e-15 2.3889e-15 0)
(-1.038e-14 3.3512e-15 0)
(-1.31857e-14 4.88144e-15 0)
(-1.71165e-14 7.43863e-15 0)
(-2.26261e-14 1.19617e-14 0)
(-2.99272e-14 2.04668e-14 0)
(-3.73313e-14 3.73313e-14 0)
(-3.69555e-14 7.05369e-14 0)
(-1.66333e-14 1.18111e-13 0)
(1.66333e-14 1.18111e-13 0)
(3.69555e-14 7.05369e-14 0)
(3.73313e-14 3.73313e-14 0)
(2.99272e-14 2.04668e-14 0)
(2.26261e-14 1.19617e-14 0)
(1.71165e-14 7.43863e-15 0)
(1.31857e-14 4.88144e-15 0)
(1.038e-14 3.3512e-15 0)
(8.3424e-15 2.3889e-15 0)
(7.25207e-14 1.75744e-15 0)
(-7.01203e-14 2.25235e-15 0)
(-7.44973e-15 3.00384e-15 0)
(-9.01051e-15 4.10763e-15 0)
(-1.10028e-14 5.77714e-15 0)
(-1.3498e-14 8.37884e-15 0)
(-1.64314e-14 1.25412e-14 0)
(-1.92848e-14 1.92848e-14 0)
(-2.04668e-14 2.99272e-14 0)
(-1.70091e-14 4.46544e-14 0)
(-6.83433e-15 5.78943e-14 0)
(6.83433e-15 5.78943e-14 0)
(1.70091e-14 4.46544e-14 0)
(2.04668e-14 2.99272e-14 0)
(1.92848e-14 1.92848e-14 0)
(1.64314e-14 1.25412e-14 0)
(1.3498e-14 8.37884e-15 0)
(1.10028e-14 5.77714e-15 0)
(9.01051e-15 4.10763e-15 0)
(7.44973e-15 3.00384e-15 0)
(7.01203e-14 2.25235e-15 0)
(-6.72645e-14 2.59303e-15 0)
(-6.48712e-15 3.38263e-15 0)
(-7.60669e-15 4.49446e-15 0)
(-8.91446e-15 6.08542e-15 0)
(-1.03525e-14 8.38778e-15 0)
(-1.17202e-14 1.17202e-14 0)
(-1.25412e-14 1.64314e-14 0)
(-1.19617e-14 2.26261e-14 0)
(-8.98837e-15 2.94595e-14 0)
(-3.39339e-15 3.43818e-14 0)
(3.39339e-15 3.43818e-14 0)
(8.98837e-15 2.94595e-14 0)
(1.19617e-14 2.26261e-14 0)
(1.25412e-14 1.64314e-14 0)
(1.17202e-14 1.17202e-14 0)
(1.03525e-14 8.38778e-15 0)
(8.91446e-15 6.08542e-15 0)
(7.60669e-15 4.49446e-15 0)
(6.48712e-15 3.38263e-15 0)
(6.72645e-14 2.59303e-15 0)
(-6.41447e-14 2.78911e-15 0)
(-5.5483e-15 3.55441e-15 0)
(-6.30772e-15 4.5857e-15 0)
(-7.10944e-15 5.9815e-15 0)
(-7.86324e-15 7.86324e-15 0)
(-8.38778e-15 1.03525e-14 0)
(-8.37884e-15 1.3498e-14 0)
(-7.43863e-15 1.71165e-14 0)
(-5.25342e-15 2.05782e-14 0)
(-1.9121e-15 2.27937e-14 0)
(1.9121e-15 2.27937e-14 0)
(5.25342e-15 2.05782e-14 0)
(7.43863e-15 1.71165e-14 0)
(8.37884e-15 1.3498e-14 0)
(8.38778e-15 1.03525e-14 0)
(7.86324e-15 7.86324e-15 0)
(7.10944e-15 5.9815e-15 0)
(6.30772e-15 4.5857e-15 0)
(5.5483e-15 3.55441e-15 0)
(6.41447e-14 2.78911e-15 0)
(-6.0921e-14 2.86425e-15 0)
(-4.69052e-15 3.56642e-15 0)
(-5.1796e-15 4.47284e-15 0)
(-5.63693e-15 5.63693e-15 0)
(-5.9815e-15 7.10944e-15 0)
(-6.08542e-15 8.91446e-15 0)
(-5.77714e-15 1.10028e-14 0)
(-4.88144e-15 1.31857e-14 0)
(-3.31123e-15 1.50902e-14 0)
(-1.17791e-15 1.62273e-14 0)
(1.17791e-15 1.62273e-14 0)
(3.31123e-15 1.50902e-14 0)
(4.88144e-15 1.31857e-14 0)
(5.77714e-15 1.10028e-14 0)
(6.08542e-15 8.91446e-15 0)
(5.9815e-15 7.10944e-15 0)
(5.63693e-15 5.63693e-15 0)
(5.1796e-15 4.47284e-15 0)
(4.69052e-15 3.56642e-15 0)
(6.0921e-14 2.86425e-15 0)
(-5.7714e-14 2.84726e-15 0)
(-3.93971e-15 3.46781e-15 0)
(-4.23722e-15 4.23722e-15 0)
(-4.47284e-15 5.1796e-15 0)
(-4.5857e-15 6.30772e-15 0)
(-4.49446e-15 7.60669e-15 0)
(-4.10763e-15 9.01051e-15 0)
(-3.3512e-15 1.038e-14 0)
(-2.21177e-15 1.15031e-14 0)
(-7.74968e-16 1.21448e-14 0)
(7.74968e-16 1.21448e-14 0)
(2.21177e-15 1.15031e-14 0)
(3.3512e-15 1.038e-14 0)
(4.10763e-15 9.01051e-15 0)
(4.49446e-15 7.60669e-15 0)
(4.5857e-15 6.30772e-15 0)
(4.47284e-15 5.1796e-15 0)
(4.23722e-15 4.23722e-15 0)
(3.93971e-15 3.46781e-15 0)
(5.7714e-14 2.84726e-15 0)
(-5.46059e-14 2.76583e-15 0)
(-3.30056e-15 3.30056e-15 0)
(-3.46781e-15 3.93971e-15 0)
(-3.56642e-15 4.69052e-15 0)
(-3.55441e-15 5.5483e-15 0)
(-3.38263e-15 6.48712e-15 0)
(-3.00384e-15 7.44973e-15 0)
(-2.3889e-15 8.3424e-15 0)
(-1.54644e-15 9.04349e-15 0)
(-5.36195e-16 9.43244e-15 0)
(5.36195e-16 9.43244e-15 0)
(1.54644e-15 9.04349e-15 0)
(2.3889e-15 8.3424e-15 0)
(3.00384e-15 7.44973e-15 0)
(3.38263e-15 6.48712e-15 0)
(3.55441e-15 5.5483e-15 0)
(3.56642e-15 4.69052e-15 0)
(3.46781e-15 3.93971e-15 0)
(3.30056e-15 3.30056e-15 0)
(5.46059e-14 2.76583e-15 0)
(-5.16476e-14 5.16476e-14 0)
(-2.76583e-15 5.46059e-14 0)
(-2.84726e-15 5.7714e-14 0)
(-2.86425e-15 6.0921e-14 0)
(-2.78911e-15 6.41447e-14 0)
(-2.59303e-15 6.72645e-14 0)
(-2.25235e-15 7.01203e-14 0)
(-1.75744e-15 7.25207e-14 0)
(-1.12173e-15 7.42667e-14 0)
(-3.86015e-16 7.51889e-14 0)
(3.86015e-16 7.51889e-14 0)
(1.12173e-15 7.42667e-14 0)
(1.75744e-15 7.25207e-14 0)
(2.25235e-15 7.01203e-14 0)
(2.59303e-15 6.72645e-14 0)
(2.78911e-15 6.41447e-14 0)
(2.86425e-15 6.0921e-14 0)
(2.84726e-15 5.7714e-14 0)
(2.76583e-15 5.46059e-14 0)
(5.16476e-14 5.16476e-14 0)
)
;

boundaryField
{
    movingWall
    {
        type            fixedValue;
        value           uniform (1 0 0);
    }
    fixedWalls
    {
        type            fixedValue;
        value           uniform (0 0 0);
    }
    frontAndBack
    {
        type            empty;
    }
}


// ************************************************************************* //
