/*--------------------------------*- C++ -*----------------------------------*\
| =========                 |                                                 |
| \\      /  F ield         | OpenFOAM: The Open Source CFD Toolbox           |
|  \\    /   O peration     | Version:  v2012                                 |
|   \\  /    A nd           | Website:  www.openfoam.com                      |
|    \\/     M anipulation  |                                                 |
\*---------------------------------------------------------------------------*/
FoamFile
{
    version     2.0;
    format      ascii;
    class       volVectorField;
    location    "1.5";
    object      U;
}
// * * * * * * * * * * * * * * * * * * * * * * * * * * * * * * * * * * * * * //

dimensions      [0 1 -1 0 0 0 0];


internalField   nonuniform List<vector> 
400
(
(7.74714e-14 7.74714e-14 0)
(4.14874e-15 8.19089e-14 0)
(4.27089e-15 8.6571e-14 0)
(4.29637e-15 9.13815e-14 0)
(4.18366e-15 9.6217e-14 0)
(3.88954e-15 1.00897e-13 0)
(3.37852e-15 1.0518e-13 0)
(2.63616e-15 1.08781e-13 0)
(1.68259e-15 1.114e-13 0)
(5.79022e-16 1.12783e-13 0)
(-5.79022e-16 1.12783e-13 0)
(-1.68259e-15 1.114e-13 0)
(-2.63616e-15 1.08781e-13 0)
(-3.37852e-15 1.0518e-13 0)
(-3.88954e-15 1.00897e-13 0)
(-4.18366e-15 9.6217e-14 0)
(-4.29637e-15 9.13815e-14 0)
(-4.27089e-15 8.6571e-14 0)
(-4.14874e-15 8.19089e-14 0)
(-7.74714e-14 7.74714e-14 0)
(8.19089e-14 4.14874e-15 0)
(4.95084e-15 4.95084e-15 0)
(5.20171e-15 5.90956e-15 0)
(5.34964e-15 7.03578e-15 0)
(5.33162e-15 8.32245e-15 0)
(5.07394e-15 9.73068e-15 0)
(4.50576e-15 1.11746e-14 0)
(3.58335e-15 1.25136e-14 0)
(2.31966e-15 1.35652e-14 0)
(8.04292e-16 1.41487e-14 0)
(-8.04292e-16 1.41487e-14 0)
(-2.31966e-15 1.35652e-14 0)
(-3.58335e-15 1.25136e-14 0)
(-4.50576e-15 1.11746e-14 0)
(-5.07394e-15 9.73068e-15 0)
(-5.33162e-15 8.32245e-15 0)
(-5.34964e-15 7.03578e-15 0)
(-5.20171e-15 5.90956e-15 0)
(-4.95084e-15 4.95084e-15 0)
(-8.19089e-14 4.14874e-15 0)
(8.6571e-14 4.27089e-15 0)
(5.90956e-15 5.20171e-15 0)
(6.35583e-15 6.35583e-15 0)
(6.70926e-15 7.7694e-15 0)
(6.87856e-15 9.46159e-15 0)
(6.74169e-15 1.141e-14 0)
(6.16144e-15 1.35158e-14 0)
(5.0268e-15 1.557e-14 0)
(3.31765e-15 1.72546e-14 0)
(1.16245e-15 1.82172e-14 0)
(-1.16245e-15 1.82172e-14 0)
(-3.31765e-15 1.72546e-14 0)
(-5.0268e-15 1.557e-14 0)
(-6.16144e-15 1.35158e-14 0)
(-6.74169e-15 1.141e-14 0)
(-6.87856e-15 9.46159e-15 0)
(-6.70926e-15 7.7694e-15 0)
(-6.35583e-15 6.35583e-15 0)
(-5.90956e-15 5.20171e-15 0)
(-8.6571e-14 4.27089e-15 0)
(9.13815e-14 4.29637e-15 0)
(7.03578e-15 5.34964e-15 0)
(7.7694e-15 6.70926e-15 0)
(8.45539e-15 8.45539e-15 0)
(8.97225e-15 1.06642e-14 0)
(9.12813e-15 1.33717e-14 0)
(8.6657e-15 1.65042e-14 0)
(7.32217e-15 1.97785e-14 0)
(4.96685e-15 2.26353e-14 0)
(1.76687e-15 2.4341e-14 0)
(-1.76687e-15 2.4341e-14 0)
(-4.96685e-15 2.26353e-14 0)
(-7.32217e-15 1.97785e-14 0)
(-8.6657e-15 1.65042e-14 0)
(-9.12813e-15 1.33717e-14 0)
(-8.97225e-15 1.06642e-14 0)
(-8.45539e-15 8.45539e-15 0)
(-7.7694e-15 6.70926e-15 0)
(-7.03578e-15 5.34964e-15 0)
(-9.13815e-14 4.29637e-15 0)
(9.6217e-14 4.18366e-15 0)
(8.32245e-15 5.33162e-15 0)
(9.46159e-15 6.87856e-15 0)
(1.06642e-14 8.97225e-15 0)
(1.17949e-14 1.17949e-14 0)
(1.25817e-14 1.55287e-14 0)
(1.25683e-14 2.0247e-14 0)
(1.11579e-14 2.56748e-14 0)
(7.88013e-15 3.08673e-14 0)
(2.86815e-15 3.41905e-14 0)
(-2.86815e-15 3.41905e-14 0)
(-7.88013e-15 3.08673e-14 0)
(-1.11579e-14 2.56748e-14 0)
(-1.25683e-14 2.0247e-14 0)
(-1.25817e-14 1.55287e-14 0)
(-1.17949e-14 1.17949e-14 0)
(-1.06642e-14 8.97225e-15 0)
(-9.46159e-15 6.87856e-15 0)
(-8.32245e-15 5.33162e-15 0)
(-9.6217e-14 4.18366e-15 0)
(1.00897e-13 3.88954e-15 0)
(9.73068e-15 5.07394e-15 0)
(1.141e-14 6.74169e-15 0)
(1.33717e-14 9.12813e-15 0)
(1.55287e-14 1.25817e-14 0)
(1.75802e-14 1.75802e-14 0)
(1.88118e-14 2.46471e-14 0)
(1.79425e-14 3.39392e-14 0)
(1.34826e-14 4.41893e-14 0)
(5.09008e-15 5.15726e-14 0)
(-5.09008e-15 5.15726e-14 0)
(-1.34826e-14 4.41893e-14 0)
(-1.79425e-14 3.39392e-14 0)
(-1.88118e-14 2.46471e-14 0)
(-1.75802e-14 1.75802e-14 0)
(-1.55287e-14 1.25817e-14 0)
(-1.33717e-14 9.12813e-15 0)
(-1.141e-14 6.74169e-15 0)
(-9.73068e-15 5.07394e-15 0)
(-1.00897e-13 3.88954e-15 0)
(1.0518e-13 3.37852e-15 0)
(1.11746e-14 4.50576e-15 0)
(1.35158e-14 6.16144e-15 0)
(1.65042e-14 8.6657e-15 0)
(2.0247e-14 1.25683e-14 0)
(2.46471e-14 1.88118e-14 0)
(2.89272e-14 2.89272e-14 0)
(3.07002e-14 4.48908e-14 0)
(2.55136e-14 6.69816e-14 0)
(1.02515e-14 8.68415e-14 0)
(-1.02515e-14 8.68415e-14 0)
(-2.55136e-14 6.69816e-14 0)
(-3.07002e-14 4.48908e-14 0)
(-2.89272e-14 2.89272e-14 0)
(-2.46471e-14 1.88118e-14 0)
(-2.0247e-14 1.25683e-14 0)
(-1.65042e-14 8.6657e-15 0)
(-1.35158e-14 6.16144e-15 0)
(-1.11746e-14 4.50576e-15 0)
(-1.0518e-13 3.37852e-15 0)
(1.08781e-13 2.63616e-15 0)
(1.25136e-14 3.58335e-15 0)
(1.557e-14 5.0268e-15 0)
(1.97785e-14 7.32217e-15 0)
(2.56748e-14 1.11579e-14 0)
(3.39392e-14 1.79425e-14 0)
(4.48908e-14 3.07002e-14 0)
(5.59969e-14 5.59969e-14 0)
(5.54332e-14 1.05805e-13 0)
(2.49499e-14 1.77167e-13 0)
(-2.49499e-14 1.77167e-13 0)
(-5.54332e-14 1.05805e-13 0)
(-5.59969e-14 5.59969e-14 0)
(-4.48908e-14 3.07002e-14 0)
(-3.39392e-14 1.79425e-14 0)
(-2.56748e-14 1.11579e-14 0)
(-1.97785e-14 7.32217e-15 0)
(-1.557e-14 5.0268e-15 0)
(-1.25136e-14 3.58335e-15 0)
(-1.08781e-13 2.63616e-15 0)
(1.114e-13 1.68259e-15 0)
(1.35652e-14 2.31966e-15 0)
(1.72546e-14 3.31765e-15 0)
(2.26353e-14 4.96685e-15 0)
(3.08673e-14 7.88013e-15 0)
(4.41893e-14 1.34826e-14 0)
(6.69816e-14 2.55136e-14 0)
(1.05805e-13 5.54332e-14 0)
(1.46683e-13 1.46683e-13 0)
(8.16127e-14 5.1789e-13 0)
(-8.16127e-14 5.1789e-13 0)
(-1.46683e-13 1.46683e-13 0)
(-1.05805e-13 5.54332e-14 0)
(-6.69816e-14 2.55136e-14 0)
(-4.41893e-14 1.34826e-14 0)
(-3.08673e-14 7.88013e-15 0)
(-2.26353e-14 4.96685e-15 0)
(-1.72546e-14 3.31765e-15 0)
(-1.35652e-14 2.31966e-15 0)
(-1.114e-13 1.68259e-15 0)
(1.12783e-13 5.79022e-16 0)
(1.41487e-14 8.04292e-16 0)
(1.82172e-14 1.16245e-15 0)
(2.4341e-14 1.76687e-15 0)
(3.41905e-14 2.86815e-15 0)
(5.15726e-14 5.09008e-15 0)
(8.68415e-14 1.02515e-14 0)
(1.77167e-13 2.49499e-14 0)
(5.1789e-13 8.16127e-14 0)
(3.96157e-13 3.96157e-13 0)
(-3.96157e-13 3.96157e-13 0)
(-5.1789e-13 8.16127e-14 0)
(-1.77167e-13 2.49499e-14 0)
(-8.68415e-14 1.02515e-14 0)
(-5.15726e-14 5.09008e-15 0)
(-3.41905e-14 2.86815e-15 0)
(-2.4341e-14 1.76687e-15 0)
(-1.82172e-14 1.16245e-15 0)
(-1.41487e-14 8.04292e-16 0)
(-1.12783e-13 5.79022e-16 0)
(1.12783e-13 -5.79022e-16 0)
(1.41487e-14 -8.04292e-16 0)
(1.82172e-14 -1.16245e-15 0)
(2.4341e-14 -1.76687e-15 0)
(3.41905e-14 -2.86815e-15 0)
(5.15726e-14 -5.09008e-15 0)
(8.68415e-14 -1.02515e-14 0)
(1.77167e-13 -2.49499e-14 0)
(5.1789e-13 -8.16127e-14 0)
(3.96157e-13 -3.96157e-13 0)
(-3.96157e-13 -3.96157e-13 0)
(-5.1789e-13 -8.16127e-14 0)
(-1.77167e-13 -2.49499e-14 0)
(-8.68415e-14 -1.02515e-14 0)
(-5.15726e-14 -5.09008e-15 0)
(-3.41905e-14 -2.86815e-15 0)
(-2.4341e-14 -1.76687e-15 0)
(-1.82172e-14 -1.16245e-15 0)
(-1.41487e-14 -8.04292e-16 0)
(-1.12783e-13 -5.79022e-16 0)
(1.114e-13 -1.68259e-15 0)
(1.35652e-14 -2.31966e-15 0)
(1.72546e-14 -3.31765e-15 0)
(2.26353e-14 -4.96685e-15 0)
(3.08673e-14 -7.88013e-15 0)
(4.41893e-14 -1.34826e-14 0)
(6.69816e-14 -2.55136e-14 0)
(1.05805e-13 -5.54332e-14 0)
(1.46683e-13 -1.46683e-13 0)
(8.16127e-14 -5.1789e-13 0)
(-8.16127e-14 -5.1789e-13 0)
(-1.46683e-13 -1.46683e-13 0)
(-1.05805e-13 -5.54332e-14 0)
(-6.69816e-14 -2.55136e-14 0)
(-4.41893e-14 -1.34826e-14 0)
(-3.08673e-14 -7.88013e-15 0)
(-2.26353e-14 -4.96685e-15 0)
(-1.72546e-14 -3.31765e-15 0)
(-1.35652e-14 -2.31966e-15 0)
(-1.114e-13 -1.68259e-15 0)
(1.08781e-13 -2.63616e-15 0)
(1.25136e-14 -3.58335e-15 0)
(1.557e-14 -5.0268e-15 0)
(1.97785e-14 -7.32217e-15 0)
(2.56748e-14 -1.11579e-14 0)
(3.39392e-14 -1.79425e-14 0)
(4.48908e-14 -3.07002e-14 0)
(5.59969e-14 -5.59969e-14 0)
(5.54332e-14 -1.05805e-13 0)
(2.49499e-14 -1.77167e-13 0)
(-2.49499e-14 -1.77167e-13 0)
(-5.54332e-14 -1.05805e-13 0)
(-5.59969e-14 -5.59969e-14 0)
(-4.48908e-14 -3.07002e-14 0)
(-3.39392e-14 -1.79425e-14 0)
(-2.56748e-14 -1.11579e-14 0)
(-1.97785e-14 -7.32217e-15 0)
(-1.557e-14 -5.0268e-15 0)
(-1.25136e-14 -3.58335e-15 0)
(-1.08781e-13 -2.63616e-15 0)
(1.0518e-13 -3.37852e-15 0)
(1.11746e-14 -4.50576e-15 0)
(1.35158e-14 -6.16144e-15 0)
(1.65042e-14 -8.6657e-15 0)
(2.0247e-14 -1.25683e-14 0)
(2.46471e-14 -1.88118e-14 0)
(2.89272e-14 -2.89272e-14 0)
(3.07002e-14 -4.48908e-14 0)
(2.55136e-14 -6.69816e-14 0)
(1.02515e-14 -8.68415e-14 0)
(-1.02515e-14 -8.68415e-14 0)
(-2.55136e-14 -6.69816e-14 0)
(-3.07002e-14 -4.48908e-14 0)
(-2.89272e-14 -2.89272e-14 0)
(-2.46471e-14 -1.88118e-14 0)
(-2.0247e-14 -1.25683e-14 0)
(-1.65042e-14 -8.6657e-15 0)
(-1.35158e-14 -6.16144e-15 0)
(-1.11746e-14 -4.50576e-15 0)
(-1.0518e-13 -3.37852e-15 0)
(1.00897e-13 -3.88954e-15 0)
(9.73068e-15 -5.07394e-15 0)
(1.141e-14 -6.74169e-15 0)
(1.33717e-14 -9.12813e-15 0)
(1.55287e-14 -1.25817e-14 0)
(1.75802e-14 -1.75802e-14 0)
(1.88118e-14 -2.46471e-14 0)
(1.79425e-14 -3.39392e-14 0)
(1.34826e-14 -4.41893e-14 0)
(5.09008e-15 -5.15726e-14 0)
(-5.09008e-15 -5.15726e-14 0)
(-1.34826e-14 -4.41893e-14 0)
(-1.79425e-14 -3.39392e-14 0)
(-1.88118e-14 -2.46471e-14 0)
(-1.75802e-14 -1.75802e-14 0)
(-1.55287e-14 -1.25817e-14 0)
(-1.33717e-14 -9.12813e-15 0)
(-1.141e-14 -6.74169e-15 0)
(-9.73068e-15 -5.07394e-15 0)
(-1.00897e-13 -3.88954e-15 0)
(9.6217e-14 -4.18366e-15 0)
(8.32245e-15 -5.33162e-15 0)
(9.46159e-15 -6.87856e-15 0)
(1.06642e-14 -8.97225e-15 0)
(1.17949e-14 -1.17949e-14 0)
(1.25817e-14 -1.55287e-14 0)
(1.25683e-14 -2.0247e-14 0)
(1.11579e-14 -2.56748e-14 0)
(7.88013e-15 -3.08673e-14 0)
(2.86815e-15 -3.41905e-14 0)
(-2.86815e-15 -3.41905e-14 0)
(-7.88013e-15 -3.08673e-14 0)
(-1.11579e-14 -2.56748e-14 0)
(-1.25683e-14 -2.0247e-14 0)
(-1.25817e-14 -1.55287e-14 0)
(-1.17949e-14 -1.17949e-14 0)
(-1.06642e-14 -8.97225e-15 0)
(-9.46159e-15 -6.87856e-15 0)
(-8.32245e-15 -5.33162e-15 0)
(-9.6217e-14 -4.18366e-15 0)
(9.13815e-14 -4.29637e-15 0)
(7.03578e-15 -5.34964e-15 0)
(7.7694e-15 -6.70926e-15 0)
(8.45539e-15 -8.45539e-15 0)
(8.97225e-15 -1.06642e-14 0)
(9.12813e-15 -1.33717e-14 0)
(8.6657e-15 -1.65042e-14 0)
(7.32217e-15 -1.97785e-14 0)
(4.96685e-15 -2.26353e-14 0)
(1.76687e-15 -2.4341e-14 0)
(-1.76687e-15 -2.4341e-14 0)
(-4.96685e-15 -2.26353e-14 0)
(-7.32217e-15 -1.97785e-14 0)
(-8.6657e-15 -1.65042e-14 0)
(-9.12813e-15 -1.33717e-14 0)
(-8.97225e-15 -1.06642e-14 0)
(-8.45539e-15 -8.45539e-15 0)
(-7.7694e-15 -6.70926e-15 0)
(-7.03578e-15 -5.34964e-15 0)
(-9.13815e-14 -4.29637e-15 0)
(8.6571e-14 -4.27089e-15 0)
(5.90956e-15 -5.20171e-15 0)
(6.35583e-15 -6.35583e-15 0)
(6.70926e-15 -7.7694e-15 0)
(6.87856e-15 -9.46159e-15 0)
(6.74169e-15 -1.141e-14 0)
(6.16144e-15 -1.35158e-14 0)
(5.0268e-15 -1.557e-14 0)
(3.31765e-15 -1.72546e-14 0)
(1.16245e-15 -1.82172e-14 0)
(-1.16245e-15 -1.82172e-14 0)
(-3.31765e-15 -1.72546e-14 0)
(-5.0268e-15 -1.557e-14 0)
(-6.16144e-15 -1.35158e-14 0)
(-6.74169e-15 -1.141e-14 0)
(-6.87856e-15 -9.46159e-15 0)
(-6.70926e-15 -7.7694e-15 0)
(-6.35583e-15 -6.35583e-15 0)
(-5.90956e-15 -5.20171e-15 0)
(-8.6571e-14 -4.27089e-15 0)
(8.19089e-14 -4.14874e-15 0)
(4.95084e-15 -4.95084e-15 0)
(5.20171e-15 -5.90956e-15 0)
(5.34964e-15 -7.03578e-15 0)
(5.33162e-15 -8.32245e-15 0)
(5.07394e-15 -9.73068e-15 0)
(4.50576e-15 -1.11746e-14 0)
(3.58335e-15 -1.25136e-14 0)
(2.31966e-15 -1.35652e-14 0)
(8.04292e-16 -1.41487e-14 0)
(-8.04292e-16 -1.41487e-14 0)
(-2.31966e-15 -1.35652e-14 0)
(-3.58335e-15 -1.25136e-14 0)
(-4.50576e-15 -1.11746e-14 0)
(-5.07394e-15 -9.73068e-15 0)
(-5.33162e-15 -8.32245e-15 0)
(-5.34964e-15 -7.03578e-15 0)
(-5.20171e-15 -5.90956e-15 0)
(-4.95084e-15 -4.95084e-15 0)
(-8.19089e-14 -4.14874e-15 0)
(7.74714e-14 -7.74714e-14 0)
(4.14874e-15 -8.19089e-14 0)
(4.27089e-15 -8.6571e-14 0)
(4.29637e-15 -9.13815e-14 0)
(4.18366e-15 -9.6217e-14 0)
(3.88954e-15 -1.00897e-13 0)
(3.37852e-15 -1.0518e-13 0)
(2.63616e-15 -1.08781e-13 0)
(1.68259e-15 -1.114e-13 0)
(5.79022e-16 -1.12783e-13 0)
(-5.79022e-16 -1.12783e-13 0)
(-1.68259e-15 -1.114e-13 0)
(-2.63616e-15 -1.08781e-13 0)
(-3.37852e-15 -1.0518e-13 0)
(-3.88954e-15 -1.00897e-13 0)
(-4.18366e-15 -9.6217e-14 0)
(-4.29637e-15 -9.13815e-14 0)
(-4.27089e-15 -8.6571e-14 0)
(-4.14874e-15 -8.19089e-14 0)
(-7.74714e-14 -7.74714e-14 0)
)
;

boundaryField
{
    movingWall
    {
        type            fixedValue;
        value           uniform (1 0 0);
    }
    fixedWalls
    {
        type            fixedValue;
        value           uniform (0 0 0);
    }
    frontAndBack
    {
        type            empty;
    }
}


// ************************************************************************* //
