/*--------------------------------*- C++ -*----------------------------------*\
| =========                 |                                                 |
| \\      /  F ield         | OpenFOAM: The Open Source CFD Toolbox           |
|  \\    /   O peration     | Version:  v2012                                 |
|   \\  /    A nd           | Website:  www.openfoam.com                      |
|    \\/     M anipulation  |                                                 |
\*---------------------------------------------------------------------------*/
FoamFile
{
    version     2.0;
    format      ascii;
    class       volScalarField;
    location    "0.4";
    object      p;
}
// * * * * * * * * * * * * * * * * * * * * * * * * * * * * * * * * * * * * * //

dimensions      [0 2 -2 0 0 0 0];


internalField   nonuniform List<scalar> 
400
(
-0.573709
-0.576666
-0.580807
-0.583758
-0.584221
-0.581688
-0.576036
-0.567543
-0.556732
-0.544234
-0.530867
-0.517575
-0.505209
-0.494494
-0.486132
-0.480732
-0.478625
-0.479525
-0.481693
-0.480013
-0.57088
-0.573888
-0.578623
-0.581926
-0.582536
-0.580107
-0.574633
-0.566375
-0.555864
-0.543766
-0.530824
-0.51789
-0.505815
-0.495329
-0.487103
-0.48181
-0.480029
-0.481683
-0.484291
-0.478271
-0.566737
-0.569555
-0.574733
-0.57817
-0.578789
-0.576455
-0.571309
-0.563658
-0.553958
-0.5428
-0.530838
-0.518817
-0.507492
-0.497509
-0.489516
-0.484287
-0.482647
-0.484575
-0.4857
-0.466958
-0.563614
-0.56657
-0.57267
-0.576598
-0.577378
-0.575128
-0.570134
-0.562752
-0.553416
-0.542695
-0.531168
-0.519495
-0.508376
-0.498417
-0.490214
-0.484513
-0.482073
-0.482284
-0.476401
-0.4217
-0.563126
-0.566429
-0.573702
-0.578321
-0.579307
-0.576998
-0.571842
-0.564269
-0.554705
-0.543761
-0.53198
-0.519956
-0.508393
-0.497929
-0.489136
-0.482562
-0.478236
-0.472732
-0.443466
-0.237439
-0.566462
-0.570161
-0.578634
-0.583907
-0.584963
-0.582324
-0.576616
-0.568365
-0.557977
-0.546153
-0.533438
-0.520388
-0.507767
-0.496387
-0.487063
-0.480768
-0.478638
-0.480557
-0.4775
-0.423974
-0.574754
-0.57875
-0.588276
-0.593975
-0.594799
-0.591438
-0.584704
-0.575248
-0.563434
-0.550065
-0.53572
-0.520925
-0.506504
-0.493468
-0.482906
-0.476134
-0.474855
-0.479984
-0.486762
-0.470167
-0.589197
-0.59329
-0.60358
-0.609314
-0.609447
-0.604842
-0.596507
-0.58525
-0.571362
-0.555728
-0.538979
-0.521623
-0.504526
-0.488852
-0.475922
-0.467353
-0.465254
-0.470953
-0.481611
-0.478308
-0.61119
-0.615079
-0.625673
-0.630847
-0.629633
-0.623096
-0.612457
-0.598706
-0.582054
-0.563394
-0.543396
-0.522568
-0.501797
-0.482366
-0.465799
-0.454019
-0.449544
-0.4541
-0.4658
-0.467236
-0.642459
-0.645678
-0.655847
-0.659558
-0.656062
-0.646679
-0.632866
-0.61579
-0.595631
-0.573175
-0.54906
-0.5238
-0.498279
-0.473841
-0.452195
-0.435579
-0.426951
-0.428614
-0.439206
-0.441335
-0.685204
-0.686991
-0.695548
-0.696419
-0.6893
-0.675867
-0.657837
-0.63646
-0.611991
-0.585005
-0.555956
-0.52531
-0.493918
-0.463115
-0.434761
-0.411397
-0.396376
-0.39281
-0.399997
-0.400362
-0.74223
-0.741349
-0.746369
-0.742329
-0.729696
-0.710647
-0.687195
-0.660469
-0.630832
-0.598636
-0.563997
-0.527159
-0.488821
-0.4502
-0.413212
-0.380696
-0.356425
-0.344408
-0.345105
-0.341468
-0.817185
-0.811715
-0.81011
-0.798066
-0.777265
-0.75053
-0.720181
-0.687049
-0.651402
-0.61333
-0.572573
-0.528977
-0.482854
-0.435097
-0.387467
-0.342944
-0.305708
-0.280716
-0.270375
-0.25987
-0.914983
-0.901997
-0.888757
-0.863996
-0.831292
-0.794152
-0.754974
-0.714309
-0.672028
-0.627673
-0.580502
-0.52985
-0.475426
-0.417518
-0.357407
-0.297808
-0.242986
-0.198722
-0.170431
-0.149041
-1.04226
-1.01728
-0.984136
-0.939345
-0.889512
-0.838705
-0.788668
-0.739407
-0.690217
-0.639793
-0.586578
-0.529151
-0.466405
-0.397754
-0.32359
-0.245709
-0.16765
-0.0954254
-0.0387487
-0.00100147
-1.20748
-1.16366
-1.09714
-1.02131
-0.947459
-0.879395
-0.81725
-0.759312
-0.703582
-0.647761
-0.589412
-0.5262
-0.45597
-0.376894
-0.287852
-0.188743
-0.0809813
0.0305878
0.130785
0.192052
-1.41985
-1.3472
-1.2263
-1.10411
-0.998262
-0.909257
-0.833889
-0.767999
-0.707491
-0.648484
-0.587369
-0.52076
-0.445305
-0.357606
-0.254325
-0.132246
0.0113163
0.175495
0.340008
0.434299
-1.68474
-1.57015
-1.36459
-1.17683
-1.03051
-0.919213
-0.832486
-0.761563
-0.699506
-0.640664
-0.580223
-0.513758
-0.436703
-0.343904
-0.229298
-0.0854648
0.0966341
0.324801
0.578961
0.718316
-1.98756
-1.81829
-1.49496
-1.22786
-1.03841
-0.90667
-0.812276
-0.740428
-0.680755
-0.625729
-0.569445
-0.506637
-0.43174
-0.338083
-0.217091
-0.0570901
0.15844
0.450612
0.813076
1.00677
-2.29749
-2.08275
-1.63102
-1.28915
-1.06047
-0.908882
-0.805192
-0.729694
-0.669287
-0.61492
-0.559739
-0.4977
-0.422403
-0.326105
-0.198656
-0.0255741
0.215032
0.555401
1.0184
1.25275
)
;

boundaryField
{
    movingWall
    {
        type            zeroGradient;
    }
    fixedWalls
    {
        type            zeroGradient;
    }
    frontAndBack
    {
        type            empty;
    }
}


// ************************************************************************* //
