/*--------------------------------*- C++ -*----------------------------------*\
| =========                 |                                                 |
| \\      /  F ield         | OpenFOAM: The Open Source CFD Toolbox           |
|  \\    /   O peration     | Version:  v2012                                 |
|   \\  /    A nd           | Website:  www.openfoam.com                      |
|    \\/     M anipulation  |                                                 |
\*---------------------------------------------------------------------------*/
FoamFile
{
    version     2.0;
    format      ascii;
    class       surfaceScalarField;
    location    "0.4";
    object      phi;
}
// * * * * * * * * * * * * * * * * * * * * * * * * * * * * * * * * * * * * * //

dimensions      [0 3 -1 0 0 0 0];
oriented        oriented;


internalField   nonuniform List<scalar> 
760
(
-1.63728e-08
1.46777e-08
-6.3976e-08
9.8395e-08
-1.58825e-07
1.91383e-07
-2.91607e-07
2.62311e-07
-4.43761e-07
3.00593e-07
-5.9772e-07
3.0544e-07
-7.38578e-07
2.80756e-07
-8.54623e-07
2.31884e-07
-9.37375e-07
1.65014e-07
-9.80926e-07
8.69622e-08
-9.82527e-07
3.98539e-09
-9.43364e-07
-7.78606e-08
-8.67607e-07
-1.52036e-07
-7.61468e-07
-2.12392e-07
-6.33999e-07
-2.54004e-07
-4.98277e-07
-2.7312e-07
-3.70978e-07
-2.6788e-07
-2.67225e-07
-2.41004e-07
-1.57612e-07
-2.01819e-07
-1.50521e-07
-1.06812e-07
6.2027e-08
-2.72338e-07
2.61186e-07
-5.32101e-07
4.61254e-07
-8.69425e-07
6.08554e-07
-1.24393e-06
6.84846e-07
-1.61713e-06
6.89327e-07
-1.95605e-06
6.30121e-07
-2.23389e-06
5.18948e-07
-2.43105e-06
3.68963e-07
-2.535e-06
1.94478e-07
-2.54022e-06
9.53826e-09
-2.44906e-06
-1.71955e-07
-2.27146e-06
-3.35758e-07
-2.02344e-06
-4.68493e-07
-1.72709e-06
-5.5933e-07
-1.41173e-06
-6.01494e-07
-1.11147e-06
-5.95392e-07
-8.48572e-07
-5.54277e-07
-5.1578e-07
-5.07463e-07
-4.44542e-07
-2.16298e-07
1.64158e-07
-5.05234e-07
5.35942e-07
-9.16087e-07
8.72349e-07
-1.42703e-06
1.10965e-06
-1.98102e-06
1.22538e-06
-2.52518e-06
1.22053e-06
-3.01484e-06
1.10872e-06
-3.41403e-06
9.09548e-07
-3.69613e-06
6.45105e-07
-3.8443e-06
3.39475e-07
-3.8516e-06
1.6834e-08
-3.72176e-06
-2.98496e-07
-3.46924e-06
-5.81631e-07
-3.118e-06
-8.08763e-07
-2.70192e-06
-9.6031e-07
-2.267e-06
-1.02521e-06
-1.86788e-06
-1.0085e-06
-1.53458e-06
-9.45245e-07
-9.97959e-07
-9.25414e-07
-1.07427e-06
-3.24558e-07
3.23106e-07
-7.32616e-07
9.30573e-07
-1.28543e-06
1.43666e-06
-1.95429e-06
1.77806e-06
-2.66574e-06
1.9327e-06
-3.35519e-06
1.9064e-06
-3.96963e-06
1.72081e-06
-4.4669e-06
1.40545e-06
-4.81598e-06
9.93243e-07
-4.99763e-06
5.20243e-07
-5.00408e-06
2.28075e-08
-4.83989e-06
-4.62185e-07
-4.52307e-06
-8.96233e-07
-4.08529e-06
-1.24091e-06
-3.57427e-06
-1.4621e-06
-3.06029e-06
-1.53538e-06
-2.63893e-06
-1.45422e-06
-2.39007e-06
-1.24471e-06
-1.71186e-06
-9.95231e-07
-8.88343e-07
-4.28137e-07
5.34282e-07
-9.49918e-07
1.43691e-06
-1.63748e-06
2.14263e-06
-2.45402e-06
2.59761e-06
-3.30931e-06
2.78638e-06
-4.12783e-06
2.7239e-06
-4.85015e-06
2.44318e-06
-5.42996e-06
1.98603e-06
-5.83345e-06
1.39753e-06
-6.04011e-06
7.26646e-07
-6.04154e-06
2.29483e-08
-5.84166e-06
-6.63088e-07
-5.45968e-06
-1.27802e-06
-4.93255e-06
-1.76631e-06
-4.32094e-06
-2.07431e-06
-3.72564e-06
-2.15482e-06
-3.32259e-06
-1.97116e-06
-3.47356e-06
-1.50185e-06
-2.88639e-06
-7.37906e-07
3.14401e-07
-5.28933e-07
7.94965e-07
-1.16074e-06
2.04937e-06
-1.97742e-06
2.98217e-06
-2.9333e-06
3.55705e-06
-3.92131e-06
3.77205e-06
-4.85568e-06
3.6567e-06
-5.67206e-06
3.2593e-06
-6.32183e-06
2.63651e-06
-6.76967e-06
1.8466e-06
-6.99451e-06
9.51467e-07
-6.98703e-06
1.36707e-08
-6.74846e-06
-9.03035e-07
-6.2945e-06
-1.73084e-06
-5.65857e-06
-2.39768e-06
-4.89528e-06
-2.83075e-06
-4.08855e-06
-2.96139e-06
-3.35936e-06
-2.73043e-06
-2.8276e-06
-2.09645e-06
-1.91584e-06
-1.0374e-06
3.97893e-07
-6.30563e-07
1.10519e-06
-1.37086e-06
2.76616e-06
-2.31157e-06
3.9502e-06
-3.39785e-06
4.64743e-06
-4.50618e-06
4.87714e-06
-5.54169e-06
4.69001e-06
-6.43703e-06
4.15408e-06
-7.14359e-06
3.34351e-06
-7.62614e-06
2.33066e-06
-7.86389e-06
1.18948e-06
-7.84679e-06
-5.8703e-09
-7.57233e-06
-1.17984e-06
-7.05011e-06
-2.25199e-06
-6.30651e-06
-3.13568e-06
-5.38778e-06
-3.74081e-06
-4.36679e-06
-3.97971e-06
-3.34888e-06
-3.77721e-06
-2.44362e-06
-3.08941e-06
-1.42712e-06
-1.9275e-06
-4.46206e-07
-7.36466e-07
1.4672e-06
-1.58541e-06
3.58759e-06
-2.64424e-06
5.04166e-06
-3.84885e-06
5.85736e-06
-5.06039e-06
6.08493e-06
-6.17701e-06
5.80401e-06
-7.13125e-06
5.10755e-06
-7.87767e-06
4.08967e-06
-8.38355e-06
2.8377e-06
-8.62969e-06
1.43588e-06
-8.60602e-06
-3.26956e-08
-8.30634e-06
-1.48326e-06
-7.73325e-06
-2.82518e-06
-6.90459e-06
-3.95896e-06
-5.8582e-06
-4.77704e-06
-4.66196e-06
-5.16908e-06
-3.42484e-06
-5.03356e-06
-2.28674e-06
-4.29874e-06
-1.20359e-06
-2.95037e-06
-1.07289e-06
-8.49631e-07
1.88489e-06
-1.80811e-06
4.51409e-06
-2.97632e-06
6.2481e-06
-4.28094e-06
7.16851e-06
-5.56995e-06
7.36925e-06
-6.73815e-06
6.96859e-06
-7.72211e-06
6.09008e-06
-8.48394e-06
4.84982e-06
-8.99714e-06
3.35056e-06
-9.24614e-06
1.68446e-06
-9.22182e-06
-6.0527e-08
-8.91478e-06
-1.79461e-06
-8.32016e-06
-3.42058e-06
-7.44557e-06
-4.82851e-06
-6.31849e-06
-5.89294e-06
-5.00111e-06
-6.47596e-06
-3.60803e-06
-6.43783e-06
-2.30875e-06
-5.65631e-06
-1.14866e-06
-4.0604e-06
-1.64529e-06
-9.72754e-07
2.3632e-06
-2.04101e-06
5.54432e-06
-3.30406e-06
7.55433e-06
-4.67977e-06
8.55139e-06
-6.0069e-06
8.69014e-06
-7.18279e-06
8.13927e-06
-8.1538e-06
7.05916e-06
-8.89511e-06
5.58871e-06
-9.39149e-06
3.84539e-06
-9.63411e-06
1.92633e-06
-9.61607e-06
-8.09056e-08
-9.32545e-06
-2.08764e-06
-8.74938e-06
-3.99578e-06
-7.88267e-06
-5.6893e-06
-6.73799e-06
-7.0265e-06
-5.36514e-06
-7.83864e-06
-3.87635e-06
-7.9376e-06
-2.45892e-06
-7.13201e-06
-1.20155e-06
-5.268e-06
-2.23716e-06
-1.10791e-06
2.90765e-06
-2.28331e-06
6.67315e-06
-3.61631e-06
8.93473e-06
-5.01766e-06
9.96062e-06
-6.32371e-06
9.98891e-06
-7.4435e-06
9.2526e-06
-8.34113e-06
7.95489e-06
-9.01101e-06
6.2574e-06
-9.45507e-06
4.28862e-06
-9.67561e-06
2.1467e-06
-9.66968e-06
-8.69245e-08
-9.42346e-06
-2.33234e-06
-8.91556e-06
-4.49866e-06
-8.12499e-06
-6.47103e-06
-7.04355e-06
-8.09693e-06
-5.69833e-06
-9.17742e-06
-4.18427e-06
-9.4684e-06
-2.68941e-06
-8.6923e-06
-1.32167e-06
-6.58123e-06
-2.88819e-06
-1.25461e-06
3.52395e-06
-2.52753e-06
7.88873e-06
-3.88865e-06
1.03473e-05
-5.24588e-06
1.13275e-05
-6.44472e-06
1.11809e-05
-7.41907e-06
1.02198e-05
-8.16154e-06
8.6943e-06
-8.69228e-06
6.78745e-06
-9.03548e-06
4.63217e-06
-9.20922e-06
2.32074e-06
-9.21751e-06
-7.79208e-08
-9.04585e-06
-2.50054e-06
-8.66405e-06
-4.87293e-06
-8.03268e-06
-7.09157e-06
-7.11589e-06
-9.00308e-06
-5.90601e-06
-1.03855e-05
-4.46174e-06
-1.09372e-05
-2.94904e-06
-1.02785e-05
-1.47744e-06
-7.9889e-06
-3.61927e-06
-1.40499e-06
4.21618e-06
-2.75115e-06
9.16576e-06
-4.07212e-06
1.1723e-05
-5.28169e-06
1.25483e-05
-6.25329e-06
1.21458e-05
-6.96334e-06
1.09213e-05
-7.44575e-06
9.16993e-06
-7.75342e-06
7.0912e-06
-7.93571e-06
4.8137e-06
-8.02891e-06
2.41445e-06
-8.04704e-06
-5.83124e-08
-7.97766e-06
-2.56563e-06
-7.78342e-06
-5.05914e-06
-7.40608e-06
-7.45827e-06
-6.77745e-06
-9.62298e-06
-5.84291e-06
-1.13233e-05
-4.6024e-06
-1.22092e-05
-3.16888e-06
-1.17898e-05
-1.63343e-06
-9.44748e-06
-4.4338e-06
-1.53353e-06
4.97974e-06
-2.89974e-06
1.04501e-05
-4.07195e-06
1.29478e-05
-4.98455e-06
1.34704e-05
-5.56947e-06
1.27213e-05
-5.8675e-06
1.12073e-05
-5.96535e-06
9.25802e-06
-5.9541e-06
7.07392e-06
-5.9092e-06
4.7671e-06
-5.88358e-06
2.39025e-06
-5.90148e-06
-3.63756e-08
-5.9554e-06
-2.50448e-06
-6.00539e-06
-4.99883e-06
-5.97914e-06
-7.47309e-06
-5.77765e-06
-9.81766e-06
-5.29185e-06
-1.18173e-05
-4.43887e-06
-1.30967e-05
-3.23705e-06
-1.30612e-05
-1.73186e-06
-1.08583e-05
-5.30751e-06
-1.57355e-06
5.78303e-06
-2.84991e-06
1.16292e-05
-3.70423e-06
1.38391e-05
-4.11215e-06
1.38846e-05
-4.10996e-06
1.27112e-05
-3.82915e-06
1.09136e-05
-3.4151e-06
8.83195e-06
-2.99361e-06
6.64465e-06
-2.66102e-06
4.43075e-06
-2.48182e-06
2.21042e-06
-2.48731e-06
-2.76307e-08
-2.67601e-06
-2.3077e-06
-3.01183e-06
-4.65078e-06
-3.41946e-06
-7.05265e-06
-3.78108e-06
-9.45082e-06
-3.93736e-06
-1.16727e-05
-3.70448e-06
-1.33561e-05
-2.95583e-06
-1.384e-05
-1.66094e-06
-1.20312e-05
-6.16535e-06
-1.36047e-06
6.52719e-06
-2.32518e-06
1.24798e-05
-2.60795e-06
1.41152e-05
-2.24459e-06
1.3528e-05
-1.43312e-06
1.19107e-05
-4.16721e-07
9.90071e-06
6.05065e-07
7.8051e-06
1.48865e-06
5.75264e-06
2.13609e-06
3.77537e-06
2.48483e-06
1.85613e-06
2.50254e-06
-4.63433e-08
2.18382e-06
-1.98429e-06
1.55237e-06
-4.01039e-06
6.69352e-07
-6.16203e-06
-3.52519e-07
-8.43241e-06
-1.32647e-06
-1.07165e-05
-1.9695e-06
-1.27154e-05
-1.96465e-06
-1.37796e-05
-1.19492e-06
-1.2646e-05
-6.84587e-06
-4.9689e-07
6.96392e-06
-7.17714e-07
1.25788e-05
-8.24964e-08
1.33729e-05
1.33322e-06
1.21292e-05
3.12255e-06
1.01873e-05
4.94366e-06
8.14152e-06
6.57857e-06
6.21327e-06
7.89689e-06
4.45819e-06
8.82393e-06
2.85779e-06
9.31813e-06
1.36302e-06
9.35736e-06
-8.7612e-08
8.9319e-06
-1.56189e-06
8.04564e-06
-3.13041e-06
6.72625e-06
-4.85884e-06
5.04761e-06
-6.78787e-06
3.17668e-06
-8.88774e-06
1.4531e-06
-1.09667e-05
3.93973e-07
-1.2496e-05
1.29324e-07
-1.22352e-05
-7.04947e-06
1.97482e-06
6.63452e-06
3.26508e-06
1.12925e-05
5.17183e-06
1.11918e-05
7.7827e-06
9.56987e-06
1.05155e-05
7.64275e-06
1.29965e-05
5.84881e-06
1.50551e-05
4.30033e-06
1.66256e-05
2.9862e-06
1.76885e-05
1.85373e-06
1.82403e-05
8.40097e-07
1.82786e-05
-1.1876e-07
1.7793e-05
-1.08815e-06
1.67655e-05
-2.13625e-06
1.51784e-05
-3.3324e-06
1.30361e-05
-4.73708e-06
1.04215e-05
-6.37412e-06
7.63116e-06
-8.16584e-06
5.31474e-06
-9.78951e-06
3.30776e-06
-1.03213e-05
-6.36824e-06
8.44648e-06
4.37546e-06
1.22702e-05
7.16809e-06
1.54299e-05
6.75261e-06
1.88462e-05
5.53676e-06
2.19659e-05
4.26202e-06
2.45405e-05
3.15381e-06
2.6526e-05
2.24851e-06
2.79542e-05
1.51707e-06
2.88721e-05
9.13813e-07
2.93168e-05
3.93071e-07
2.93057e-05
-8.77419e-08
2.88314e-05
-5.70072e-07
2.78617e-05
-1.09662e-06
2.63433e-05
-1.71178e-06
2.42109e-05
-2.45844e-06
2.14246e-05
-3.36727e-06
1.81129e-05
-4.42713e-06
1.49146e-05
-5.51021e-06
1.0629e-05
-6.1801e-06
-4.04666e-06
2.55592e-05
3.14297e-05
3.42098e-05
3.66968e-05
3.86763e-05
4.01448e-05
4.11797e-05
4.18635e-05
4.226e-05
4.24094e-05
4.23289e-05
4.20134e-05
4.14371e-05
4.05527e-05
3.9288e-05
3.7551e-05
3.52953e-05
3.30368e-05
2.79875e-05
)
;

boundaryField
{
    movingWall
    {
        type            calculated;
        value           uniform 0;
    }
    fixedWalls
    {
        type            calculated;
        value           uniform 0;
    }
    frontAndBack
    {
        type            empty;
        value           nonuniform List<scalar> 0();
    }
}


// ************************************************************************* //
