/*--------------------------------*- C++ -*----------------------------------*\
| =========                 |                                                 |
| \\      /  F ield         | OpenFOAM: The Open Source CFD Toolbox           |
|  \\    /   O peration     | Version:  v2012                                 |
|   \\  /    A nd           | Website:  www.openfoam.com                      |
|    \\/     M anipulation  |                                                 |
\*---------------------------------------------------------------------------*/
FoamFile
{
    version     2.0;
    format      ascii;
    class       volVectorField;
    location    "0.4";
    object      U;
}
// * * * * * * * * * * * * * * * * * * * * * * * * * * * * * * * * * * * * * //

dimensions      [0 1 -1 0 0 0 0];


internalField   nonuniform List<vector> 
400
(
(-8.86164e-05 7.15543e-05 0)
(-0.000566297 0.000838839 0)
(-0.00199274 0.00174274 0)
(-0.00436025 0.00244863 0)
(-0.00730405 0.00283831 0)
(-0.0104464 0.00290182 0)
(-0.0134624 0.00267749 0)
(-0.0160807 0.00221496 0)
(-0.0181042 0.00157622 0)
(-0.0193908 0.000830635 0)
(-0.0198462 3.67208e-05 0)
(-0.0194549 -0.00074977 0)
(-0.0182797 -0.00146386 0)
(-0.0164246 -0.00204425 0)
(-0.0140341 -0.00244364 0)
(-0.0113259 -0.00262203 0)
(-0.00860519 -0.00254843 0)
(-0.00623392 -0.00223011 0)
(-0.00445508 -0.00174375 0)
(-0.00184942 -0.0011599 0)
(-0.000936823 0.000515553 0)
(-0.00333567 0.00309696 0)
(-0.00755787 0.00591257 0)
(-0.0137262 0.00804381 0)
(-0.0210508 0.00918542 0)
(-0.0287065 0.00931579 0)
(-0.0359787 0.00855276 0)
(-0.0422632 0.00706038 0)
(-0.0470925 0.00502432 0)
(-0.0501494 0.00264785 0)
(-0.0512504 0.000122695 0)
(-0.0503584 -0.00236466 0)
(-0.0476041 -0.00461758 0)
(-0.0432541 -0.00645142 0)
(-0.0376833 -0.00771653 0)
(-0.0314003 -0.00830277 0)
(-0.0250689 -0.00816676 0)
(-0.0193898 -0.00741006 0)
(-0.0145531 -0.00632899 0)
(-0.00607814 -0.00486093 0)
(-0.00201219 0.00196553 0)
(-0.00663974 0.00735047 0)
(-0.0135696 0.0125376 0)
(-0.0230738 0.0162983 0)
(-0.0340074 0.0182084 0)
(-0.0452334 0.0182573 0)
(-0.0557739 0.0166521 0)
(-0.0648199 0.0136975 0)
(-0.0717412 0.00973421 0)
(-0.0761039 0.00513126 0)
(-0.0776682 0.000258836 0)
(-0.0763958 -0.00451356 0)
(-0.0724746 -0.00881274 0)
(-0.066295 -0.0122883 0)
(-0.058425 -0.0146567 0)
(-0.0496517 -0.015757 0)
(-0.0410282 -0.0156489 0)
(-0.0336869 -0.014761 0)
(-0.0276963 -0.0139695 0)
(-0.012222 -0.0129207 0)
(-0.00308708 0.0046008 0)
(-0.00989522 0.0140872 0)
(-0.0194094 0.0223564 0)
(-0.0320078 0.0280876 0)
(-0.0461639 0.0308068 0)
(-0.0604656 0.030564 0)
(-0.0737419 0.0276968 0)
(-0.0850434 0.0226844 0)
(-0.0936326 0.01607 0)
(-0.0990067 0.00844772 0)
(-0.100898 0.000414525 0)
(-0.0992649 -0.0074263 0)
(-0.0943307 -0.0144525 0)
(-0.0865923 -0.0200622 0)
(-0.0768193 -0.0237557 0)
(-0.0661515 -0.0252513 0)
(-0.0562601 -0.0246912 0)
(-0.049297 -0.0230488 0)
(-0.0463057 -0.023047 0)
(-0.0221689 -0.0300502 0)
(-0.00411742 0.00832343 0)
(-0.0130081 0.0231357 0)
(-0.0249887 0.0351102 0)
(-0.0405106 0.0430348 0)
(-0.0576503 0.0465012 0)
(-0.074722 0.0456918 0)
(-0.0903913 0.0411358 0)
(-0.103615 0.0335337 0)
(-0.113584 0.0236597 0)
(-0.119754 0.012362 0)
(-0.12185 0.000497775 0)
(-0.119811 -0.0110611 0)
(-0.113855 -0.0213968 0)
(-0.104532 -0.0295744 0)
(-0.0927698 -0.0347283 0)
(-0.0800679 -0.0361641 0)
(-0.0689578 -0.0334774 0)
(-0.0639457 -0.0267396 0)
(-0.0749968 -0.0167622 0)
(-0.0404588 -0.00548349 0)
(-0.00512234 0.0130479 0)
(-0.016035 0.0343405 0)
(-0.0303944 0.0505952 0)
(-0.0487022 0.0608695 0)
(-0.0686297 0.0649542 0)
(-0.0882228 0.063264 0)
(-0.106005 0.0565912 0)
(-0.120878 0.0459076 0)
(-0.131995 0.0322415 0)
(-0.138791 0.0167039 0)
(-0.140989 0.000420158 0)
(-0.138492 -0.0154624 0)
(-0.131446 -0.0297241 0)
(-0.120334 -0.0410781 0)
(-0.106009 -0.0482442 0)
(-0.0898022 -0.0500289 0)
(-0.0737396 -0.0453691 0)
(-0.0606348 -0.0333345 0)
(-0.0524691 -0.0127541 0)
(-0.0241645 0.0180595 0)
(-0.00614274 0.0187507 0)
(-0.0190798 0.0476343 0)
(-0.0357545 0.0686918 0)
(-0.0567083 0.0814126 0)
(-0.0792056 0.0859277 0)
(-0.101042 0.0830039 0)
(-0.120626 0.0737807 0)
(-0.136855 0.0595529 0)
(-0.148888 0.0416225 0)
(-0.156157 0.0213548 0)
(-0.158398 0.000126671 0)
(-0.155473 -0.020659 0)
(-0.14742 -0.0395095 0)
(-0.134584 -0.054829 0)
(-0.117676 -0.0649857 0)
(-0.0978354 -0.0684267 0)
(-0.0768363 -0.063848 0)
(-0.0571188 -0.0505234 0)
(-0.0406261 -0.028742 0)
(-0.0164589 -0.00214383 0)
(-0.00721797 0.025457 0)
(-0.0222407 0.0630122 0)
(-0.0411757 0.0893162 0)
(-0.0645939 0.104485 0)
(-0.0893601 0.109158 0)
(-0.113055 0.104596 0)
(-0.134025 0.0923827 0)
(-0.151225 0.0741875 0)
(-0.163882 0.051604 0)
(-0.17146 0.0262245 0)
(-0.173727 -0.000361483 0)
(-0.170513 -0.0265348 0)
(-0.16174 -0.0505701 0)
(-0.14759 -0.070598 0)
(-0.128594 -0.0846465 0)
(-0.105734 -0.0907618 0)
(-0.0807441 -0.0872402 0)
(-0.0562494 -0.0730528 0)
(-0.0352201 -0.0483578 0)
(-0.0129236 -0.0157044 0)
(-0.00838389 0.0332311 0)
(-0.0256013 0.0804914 0)
(-0.046723 0.11235 0)
(-0.0723299 0.12981 0)
(-0.0989078 0.134239 0)
(-0.12389 0.127564 0)
(-0.145636 0.111919 0)
(-0.163248 0.0893992 0)
(-0.176109 0.061904 0)
(-0.183776 0.0312105 0)
(-0.186069 -0.000946342 0)
(-0.182803 -0.0327957 0)
(-0.173788 -0.062437 0)
(-0.159019 -0.0877605 0)
(-0.138804 -0.106435 0)
(-0.113936 -0.116001 0)
(-0.086109 -0.114102 0)
(-0.0582123 -0.0988968 0)
(-0.0341375 -0.0696571 0)
(-0.0118089 -0.0272111 0)
(-0.00967618 0.0421645 0)
(-0.029234 0.100072 0)
(-0.0524063 0.137574 0)
(-0.0797559 0.15693 0)
(-0.107435 0.160531 0)
(-0.132841 0.15118 0)
(-0.154471 0.131684 0)
(-0.171681 0.104593 0)
(-0.184123 0.0721185 0)
(-0.191536 0.036168 0)
(-0.193828 -0.00147474 0)
(-0.190815 -0.0389886 0)
(-0.182203 -0.0743863 0)
(-0.167772 -0.10538 0)
(-0.147535 -0.129282 0)
(-0.121985 -0.143037 0)
(-0.0926212 -0.143411 0)
(-0.0624329 -0.127356 0)
(-0.0359241 -0.0927589 0)
(-0.0121378 -0.0386006 0)
(-0.011128 0.0523636 0)
(-0.0331885 0.121701 0)
(-0.0581438 0.1646 0)
(-0.0865084 0.185125 0)
(-0.114198 0.187075 0)
(-0.138751 0.174391 0)
(-0.158989 0.150682 0)
(-0.174656 0.118955 0)
(-0.185784 0.081697 0)
(-0.192419 0.0408854 0)
(-0.194606 -0.00176148 0)
(-0.192181 -0.0445171 0)
(-0.184757 -0.0854449 0)
(-0.171865 -0.122192 0)
(-0.153135 -0.151778 0)
(-0.128607 -0.170509 0)
(-0.0993261 -0.174093 0)
(-0.0680446 -0.157925 0)
(-0.039532 -0.117961 0)
(-0.0133349 -0.0508856 0)
(-0.0127486 0.0639426 0)
(-0.0374359 0.145225 0)
(-0.0636652 0.192789 0)
(-0.0918806 0.2133 0)
(-0.117955 0.212482 0)
(-0.139834 0.195713 0)
(-0.156929 0.167514 0)
(-0.169533 0.131341 0)
(-0.178158 0.0898478 0)
(-0.183261 0.0449826 0)
(-0.185108 -0.0017155 0)
(-0.183592 -0.0487767 0)
(-0.178242 -0.0945016 0)
(-0.16832 -0.13665 0)
(-0.152987 -0.1721 0)
(-0.131649 -0.196588 0)
(-0.104591 -0.204643 0)
(-0.0738783 -0.189767 0)
(-0.0440831 -0.145288 0)
(-0.0150143 -0.0646418 0)
(-0.0144679 0.0770156 0)
(-0.0417319 0.170324 0)
(-0.068314 0.221104 0)
(-0.0945708 0.239802 0)
(-0.116697 0.234754 0)
(-0.133435 0.21308 0)
(-0.145098 0.180258 0)
(-0.152731 0.140157 0)
(-0.157405 0.095439 0)
(-0.160023 0.047847 0)
(-0.161133 -0.00140134 0)
(-0.160748 -0.0512451 0)
(-0.158358 -0.100416 0)
(-0.152979 -0.147013 0)
(-0.143264 -0.188023 0)
(-0.127834 -0.218832 0)
(-0.105883 -0.232844 0)
(-0.0782131 -0.221374 0)
(-0.048542 -0.174268 0)
(-0.0167954 -0.0801288 0)
(-0.0160124 0.0916317 0)
(-0.0453289 0.196307 0)
(-0.0706609 0.247817 0)
(-0.0922169 0.26213 0)
(-0.107165 0.251076 0)
(-0.115614 0.223771 0)
(-0.119086 0.186539 0)
(-0.119528 0.143491 0)
(-0.118637 0.0971089 0)
(-0.117732 0.0487308 0)
(-0.117612 -0.000931157 0)
(-0.118447 -0.0513802 0)
(-0.119768 -0.10195 0)
(-0.120447 -0.151318 0)
(-0.118719 -0.196896 0)
(-0.112387 -0.234101 0)
(-0.0992869 -0.255523 0)
(-0.078268 -0.250216 0)
(-0.0512141 -0.203632 0)
(-0.0180605 -0.0972234 0)
(-0.0166194 0.107558 0)
(-0.0463224 0.221696 0)
(-0.067674 0.270097 0)
(-0.0804954 0.276685 0)
(-0.0839907 0.257775 0)
(-0.0804075 0.224523 0)
(-0.0727585 0.183782 0)
(-0.0638456 0.139466 0)
(-0.0558989 0.093575 0)
(-0.0505421 0.0468792 0)
(-0.0487308 -0.000523865 0)
(-0.0507615 -0.048799 0)
(-0.056279 -0.0980035 0)
(-0.0641941 -0.147606 0)
(-0.0725844 -0.195811 0)
(-0.078659 -0.238593 0)
(-0.0788353 -0.268344 0)
(-0.0693438 -0.272232 0)
(-0.0488894 -0.230701 0)
(-0.0175481 -0.115077 0)
(-0.0143201 0.123763 0)
(-0.0400986 0.243471 0)
(-0.0529087 0.283467 0)
(-0.0514094 0.278699 0)
(-0.0383741 0.250674 0)
(-0.0189507 0.212021 0)
(0.00228189 0.169496 0)
(0.0219207 0.12632 0)
(0.0376254 0.0836549 0)
(0.0478183 0.0415376 0)
(0.0515751 -0.000581363 0)
(0.0485265 -0.0435091 0)
(0.0388261 -0.0880275 0)
(0.0232685 -0.1345 0)
(0.00350555 -0.182222 0)
(-0.0176063 -0.228314 0)
(-0.0354526 -0.265899 0)
(-0.0433274 -0.281368 0)
(-0.0352584 -0.250547 0)
(-0.0125382 -0.131537 0)
(-0.00407347 0.137324 0)
(-0.0158021 0.25572 0)
(-0.0129064 0.281142 0)
(0.00960658 0.262423 0)
(0.0437222 0.225756 0)
(0.0811797 0.184008 0)
(0.116567 0.142708 0)
(0.146576 0.103786 0)
(0.1693 0.0673597 0)
(0.183658 0.0327075 0)
(0.189067 -0.00127237 0)
(0.185227 -0.0358626 0)
(0.172049 -0.072388 0)
(0.149777 -0.111981 0)
(0.119273 -0.155074 0)
(0.0826312 -0.200345 0)
(0.044436 -0.242716 0)
(0.013688 -0.269814 0)
(0.00207089 -0.255291 0)
(0.00310207 -0.142298 0)
(0.0275888 0.141232 0)
(0.0514041 0.247432 0)
(0.0791991 0.253775 0)
(0.127674 0.222747 0)
(0.183634 0.181736 0)
(0.236987 0.141653 0)
(0.282874 0.105823 0)
(0.31933 0.0745419 0)
(0.345696 0.046952 0)
(0.361843 0.0218132 0)
(0.367771 -0.00223211 0)
(0.363373 -0.0266129 0)
(0.348347 -0.0528284 0)
(0.322273 -0.0823726 0)
(0.284862 -0.11644 0)
(0.236581 -0.155164 0)
(0.180281 -0.195953 0)
(0.124965 -0.230028 0)
(0.087624 -0.234117 0)
(0.0446864 -0.139681 0)
(0.120989 0.124148 0)
(0.21687 0.204268 0)
(0.273936 0.193896 0)
(0.343261 0.160048 0)
(0.410587 0.123974 0)
(0.468049 0.0922993 0)
(0.513571 0.0661902 0)
(0.547467 0.0449059 0)
(0.570701 0.0271973 0)
(0.584182 0.0117907 0)
(0.588491 -0.00251828 0)
(0.583738 -0.0169132 0)
(0.569518 -0.0326215 0)
(0.544952 -0.0509233 0)
(0.50878 -0.0730429 0)
(0.459654 -0.0998003 0)
(0.397328 -0.13068 0)
(0.327186 -0.161553 0)
(0.269397 -0.178737 0)
(0.155764 -0.115049 0)
(0.422151 0.0508699 0)
(0.600218 0.0824554 0)
(0.656968 0.0762085 0)
(0.711423 0.0614227 0)
(0.756449 0.0465073 0)
(0.790603 0.0338532 0)
(0.815188 0.02375 0)
(0.831998 0.015777 0)
(0.842541 0.00935522 0)
(0.847858 0.00393218 0)
(0.848519 -0.000991397 0)
(0.844638 -0.00588971 0)
(0.8359 -0.0112432 0)
(0.821585 -0.0175481 0)
(0.800521 -0.0252946 0)
(0.770998 -0.0348905 0)
(0.731042 -0.0464053 0)
(0.68077 -0.0588556 0)
(0.640703 -0.0684674 0)
(0.478796 -0.0468179 0)
)
;

boundaryField
{
    movingWall
    {
        type            fixedValue;
        value           uniform (1 0 0);
    }
    fixedWalls
    {
        type            noSlip;
    }
    frontAndBack
    {
        type            empty;
    }
}


// ************************************************************************* //
