/*--------------------------------*- C++ -*----------------------------------*\
| =========                 |                                                 |
| \\      /  F ield         | OpenFOAM: The Open Source CFD Toolbox           |
|  \\    /   O peration     | Version:  v2012                                 |
|   \\  /    A nd           | Website:  www.openfoam.com                      |
|    \\/     M anipulation  |                                                 |
\*---------------------------------------------------------------------------*/
FoamFile
{
    version     2.0;
    format      ascii;
    class       volVectorField;
    location    "9.5";
    object      U;
}
// * * * * * * * * * * * * * * * * * * * * * * * * * * * * * * * * * * * * * //

dimensions      [0 1 -1 0 0 0 0];


internalField   nonuniform List<vector> 
400
(
(1.2398e-12 1.2398e-12 0)
(6.63938e-14 1.31082e-12 0)
(6.83487e-14 1.38543e-12 0)
(6.87564e-14 1.46241e-12 0)
(6.69526e-14 1.5398e-12 0)
(6.22458e-14 1.61469e-12 0)
(5.40677e-14 1.68324e-12 0)
(4.21875e-14 1.74086e-12 0)
(2.69271e-14 1.78278e-12 0)
(9.26631e-15 1.80491e-12 0)
(-9.26631e-15 1.80491e-12 0)
(-2.69271e-14 1.78278e-12 0)
(-4.21875e-14 1.74086e-12 0)
(-5.40677e-14 1.68324e-12 0)
(-6.22458e-14 1.61469e-12 0)
(-6.69526e-14 1.5398e-12 0)
(-6.87564e-14 1.46241e-12 0)
(-6.83487e-14 1.38543e-12 0)
(-6.63938e-14 1.31082e-12 0)
(-1.2398e-12 1.2398e-12 0)
(1.31082e-12 6.63938e-14 0)
(7.92301e-14 7.92301e-14 0)
(8.32449e-14 9.45728e-14 0)
(8.56122e-14 1.12596e-13 0)
(8.53239e-14 1.33187e-13 0)
(8.12002e-14 1.55724e-13 0)
(7.21074e-14 1.78831e-13 0)
(5.73457e-14 2.0026e-13 0)
(3.71224e-14 2.17089e-13 0)
(1.28714e-14 2.26426e-13 0)
(-1.28714e-14 2.26426e-13 0)
(-3.71224e-14 2.17089e-13 0)
(-5.73457e-14 2.0026e-13 0)
(-7.21074e-14 1.78831e-13 0)
(-8.12002e-14 1.55724e-13 0)
(-8.53239e-14 1.33187e-13 0)
(-8.56122e-14 1.12596e-13 0)
(-8.32449e-14 9.45728e-14 0)
(-7.92301e-14 7.92301e-14 0)
(-1.31082e-12 6.63938e-14 0)
(1.38543e-12 6.83487e-14 0)
(9.45728e-14 8.32449e-14 0)
(1.01715e-13 1.01715e-13 0)
(1.07371e-13 1.24337e-13 0)
(1.1008e-13 1.51417e-13 0)
(1.0789e-13 1.82599e-13 0)
(9.86038e-14 2.16298e-13 0)
(8.04458e-14 2.49172e-13 0)
(5.30936e-14 2.76132e-13 0)
(1.86031e-14 2.91536e-13 0)
(-1.86031e-14 2.91536e-13 0)
(-5.30936e-14 2.76132e-13 0)
(-8.04458e-14 2.49172e-13 0)
(-9.86038e-14 2.16298e-13 0)
(-1.0789e-13 1.82599e-13 0)
(-1.1008e-13 1.51417e-13 0)
(-1.07371e-13 1.24337e-13 0)
(-1.01715e-13 1.01715e-13 0)
(-9.45728e-14 8.32449e-14 0)
(-1.38543e-12 6.83487e-14 0)
(1.46241e-12 6.87564e-14 0)
(1.12596e-13 8.56122e-14 0)
(1.24337e-13 1.07371e-13 0)
(1.35315e-13 1.35315e-13 0)
(1.43586e-13 1.70663e-13 0)
(1.46081e-13 2.13992e-13 0)
(1.3868e-13 2.64122e-13 0)
(1.17179e-13 3.16523e-13 0)
(7.94863e-14 3.62241e-13 0)
(2.82758e-14 3.89538e-13 0)
(-2.82758e-14 3.89538e-13 0)
(-7.94863e-14 3.62241e-13 0)
(-1.17179e-13 3.16523e-13 0)
(-1.3868e-13 2.64122e-13 0)
(-1.46081e-13 2.13992e-13 0)
(-1.43586e-13 1.70663e-13 0)
(-1.35315e-13 1.35315e-13 0)
(-1.24337e-13 1.07371e-13 0)
(-1.12596e-13 8.56122e-14 0)
(-1.46241e-12 6.87564e-14 0)
(1.5398e-12 6.69526e-14 0)
(1.33187e-13 8.53239e-14 0)
(1.51417e-13 1.1008e-13 0)
(1.70663e-13 1.43586e-13 0)
(1.88758e-13 1.88758e-13 0)
(2.01349e-13 2.48512e-13 0)
(2.01135e-13 3.2402e-13 0)
(1.78565e-13 4.10883e-13 0)
(1.26109e-13 4.93981e-13 0)
(4.59001e-14 5.47163e-13 0)
(-4.59001e-14 5.47163e-13 0)
(-1.26109e-13 4.93981e-13 0)
(-1.78565e-13 4.10883e-13 0)
(-2.01135e-13 3.2402e-13 0)
(-2.01349e-13 2.48512e-13 0)
(-1.88758e-13 1.88758e-13 0)
(-1.70663e-13 1.43586e-13 0)
(-1.51417e-13 1.1008e-13 0)
(-1.33187e-13 8.53239e-14 0)
(-1.5398e-12 6.69526e-14 0)
(1.61469e-12 6.22458e-14 0)
(1.55724e-13 8.12002e-14 0)
(1.82599e-13 1.0789e-13 0)
(2.13992e-13 1.46081e-13 0)
(2.48512e-13 2.01349e-13 0)
(2.81343e-13 2.81343e-13 0)
(3.01052e-13 3.94437e-13 0)
(2.8714e-13 5.43141e-13 0)
(2.15766e-13 7.07178e-13 0)
(8.14584e-14 8.25336e-13 0)
(-8.14584e-14 8.25336e-13 0)
(-2.15766e-13 7.07178e-13 0)
(-2.8714e-13 5.43141e-13 0)
(-3.01052e-13 3.94437e-13 0)
(-2.81343e-13 2.81343e-13 0)
(-2.48512e-13 2.01349e-13 0)
(-2.13992e-13 1.46081e-13 0)
(-1.82599e-13 1.0789e-13 0)
(-1.55724e-13 8.12002e-14 0)
(-1.61469e-12 6.22458e-14 0)
(1.68324e-12 5.40677e-14 0)
(1.78831e-13 7.21074e-14 0)
(2.16298e-13 9.86038e-14 0)
(2.64122e-13 1.3868e-13 0)
(3.2402e-13 2.01135e-13 0)
(3.94437e-13 3.01052e-13 0)
(4.62933e-13 4.62933e-13 0)
(4.91306e-13 7.18404e-13 0)
(4.08304e-13 1.07193e-12 0)
(1.64058e-13 1.38976e-12 0)
(-1.64058e-13 1.38976e-12 0)
(-4.08304e-13 1.07193e-12 0)
(-4.91306e-13 7.18404e-13 0)
(-4.62933e-13 4.62933e-13 0)
(-3.94437e-13 3.01052e-13 0)
(-3.2402e-13 2.01135e-13 0)
(-2.64122e-13 1.3868e-13 0)
(-2.16298e-13 9.86038e-14 0)
(-1.78831e-13 7.21074e-14 0)
(-1.68324e-12 5.40677e-14 0)
(1.74086e-12 4.21875e-14 0)
(2.0026e-13 5.73457e-14 0)
(2.49172e-13 8.04458e-14 0)
(3.16523e-13 1.17179e-13 0)
(4.10883e-13 1.78565e-13 0)
(5.43141e-13 2.8714e-13 0)
(7.18404e-13 4.91306e-13 0)
(8.96139e-13 8.96139e-13 0)
(8.87119e-13 1.69324e-12 0)
(3.99283e-13 2.83526e-12 0)
(-3.99283e-13 2.83526e-12 0)
(-8.87119e-13 1.69324e-12 0)
(-8.96139e-13 8.96139e-13 0)
(-7.18404e-13 4.91306e-13 0)
(-5.43141e-13 2.8714e-13 0)
(-4.10883e-13 1.78565e-13 0)
(-3.16523e-13 1.17179e-13 0)
(-2.49172e-13 8.04458e-14 0)
(-2.0026e-13 5.73457e-14 0)
(-1.74086e-12 4.21875e-14 0)
(1.78278e-12 2.69271e-14 0)
(2.17089e-13 3.71224e-14 0)
(2.76132e-13 5.30936e-14 0)
(3.62241e-13 7.94863e-14 0)
(4.93981e-13 1.26109e-13 0)
(7.07178e-13 2.15766e-13 0)
(1.07193e-12 4.08304e-13 0)
(1.69324e-12 8.87119e-13 0)
(2.34743e-12 2.34743e-12 0)
(1.30608e-12 8.28798e-12 0)
(-1.30608e-12 8.28798e-12 0)
(-2.34743e-12 2.34743e-12 0)
(-1.69324e-12 8.87119e-13 0)
(-1.07193e-12 4.08304e-13 0)
(-7.07178e-13 2.15766e-13 0)
(-4.93981e-13 1.26109e-13 0)
(-3.62241e-13 7.94863e-14 0)
(-2.76132e-13 5.30936e-14 0)
(-2.17089e-13 3.71224e-14 0)
(-1.78278e-12 2.69271e-14 0)
(1.80491e-12 9.26631e-15 0)
(2.26426e-13 1.28714e-14 0)
(2.91536e-13 1.86031e-14 0)
(3.89538e-13 2.82758e-14 0)
(5.47163e-13 4.59001e-14 0)
(8.25336e-13 8.14584e-14 0)
(1.38976e-12 1.64058e-13 0)
(2.83526e-12 3.99283e-13 0)
(8.28798e-12 1.30608e-12 0)
(6.33984e-12 6.33984e-12 0)
(-6.33984e-12 6.33984e-12 0)
(-8.28798e-12 1.30608e-12 0)
(-2.83526e-12 3.99283e-13 0)
(-1.38976e-12 1.64058e-13 0)
(-8.25336e-13 8.14584e-14 0)
(-5.47163e-13 4.59001e-14 0)
(-3.89538e-13 2.82758e-14 0)
(-2.91536e-13 1.86031e-14 0)
(-2.26426e-13 1.28714e-14 0)
(-1.80491e-12 9.26631e-15 0)
(1.80491e-12 -9.26631e-15 0)
(2.26426e-13 -1.28714e-14 0)
(2.91536e-13 -1.86031e-14 0)
(3.89538e-13 -2.82758e-14 0)
(5.47163e-13 -4.59001e-14 0)
(8.25336e-13 -8.14584e-14 0)
(1.38976e-12 -1.64058e-13 0)
(2.83526e-12 -3.99283e-13 0)
(8.28798e-12 -1.30608e-12 0)
(6.33984e-12 -6.33984e-12 0)
(-6.33984e-12 -6.33984e-12 0)
(-8.28798e-12 -1.30608e-12 0)
(-2.83526e-12 -3.99283e-13 0)
(-1.38976e-12 -1.64058e-13 0)
(-8.25336e-13 -8.14584e-14 0)
(-5.47163e-13 -4.59001e-14 0)
(-3.89538e-13 -2.82758e-14 0)
(-2.91536e-13 -1.86031e-14 0)
(-2.26426e-13 -1.28714e-14 0)
(-1.80491e-12 -9.26631e-15 0)
(1.78278e-12 -2.69271e-14 0)
(2.17089e-13 -3.71224e-14 0)
(2.76132e-13 -5.30936e-14 0)
(3.62241e-13 -7.94863e-14 0)
(4.93981e-13 -1.26109e-13 0)
(7.07178e-13 -2.15766e-13 0)
(1.07193e-12 -4.08304e-13 0)
(1.69324e-12 -8.87119e-13 0)
(2.34743e-12 -2.34743e-12 0)
(1.30608e-12 -8.28798e-12 0)
(-1.30608e-12 -8.28798e-12 0)
(-2.34743e-12 -2.34743e-12 0)
(-1.69324e-12 -8.87119e-13 0)
(-1.07193e-12 -4.08304e-13 0)
(-7.07178e-13 -2.15766e-13 0)
(-4.93981e-13 -1.26109e-13 0)
(-3.62241e-13 -7.94863e-14 0)
(-2.76132e-13 -5.30936e-14 0)
(-2.17089e-13 -3.71224e-14 0)
(-1.78278e-12 -2.69271e-14 0)
(1.74086e-12 -4.21875e-14 0)
(2.0026e-13 -5.73457e-14 0)
(2.49172e-13 -8.04458e-14 0)
(3.16523e-13 -1.17179e-13 0)
(4.10883e-13 -1.78565e-13 0)
(5.43141e-13 -2.8714e-13 0)
(7.18404e-13 -4.91306e-13 0)
(8.96139e-13 -8.96139e-13 0)
(8.87119e-13 -1.69324e-12 0)
(3.99283e-13 -2.83526e-12 0)
(-3.99283e-13 -2.83526e-12 0)
(-8.87119e-13 -1.69324e-12 0)
(-8.96139e-13 -8.96139e-13 0)
(-7.18404e-13 -4.91306e-13 0)
(-5.43141e-13 -2.8714e-13 0)
(-4.10883e-13 -1.78565e-13 0)
(-3.16523e-13 -1.17179e-13 0)
(-2.49172e-13 -8.04458e-14 0)
(-2.0026e-13 -5.73457e-14 0)
(-1.74086e-12 -4.21875e-14 0)
(1.68324e-12 -5.40677e-14 0)
(1.78831e-13 -7.21074e-14 0)
(2.16298e-13 -9.86038e-14 0)
(2.64122e-13 -1.3868e-13 0)
(3.2402e-13 -2.01135e-13 0)
(3.94437e-13 -3.01052e-13 0)
(4.62933e-13 -4.62933e-13 0)
(4.91306e-13 -7.18404e-13 0)
(4.08304e-13 -1.07193e-12 0)
(1.64058e-13 -1.38976e-12 0)
(-1.64058e-13 -1.38976e-12 0)
(-4.08304e-13 -1.07193e-12 0)
(-4.91306e-13 -7.18404e-13 0)
(-4.62933e-13 -4.62933e-13 0)
(-3.94437e-13 -3.01052e-13 0)
(-3.2402e-13 -2.01135e-13 0)
(-2.64122e-13 -1.3868e-13 0)
(-2.16298e-13 -9.86038e-14 0)
(-1.78831e-13 -7.21074e-14 0)
(-1.68324e-12 -5.40677e-14 0)
(1.61469e-12 -6.22458e-14 0)
(1.55724e-13 -8.12002e-14 0)
(1.82599e-13 -1.0789e-13 0)
(2.13992e-13 -1.46081e-13 0)
(2.48512e-13 -2.01349e-13 0)
(2.81343e-13 -2.81343e-13 0)
(3.01052e-13 -3.94437e-13 0)
(2.8714e-13 -5.43141e-13 0)
(2.15766e-13 -7.07178e-13 0)
(8.14584e-14 -8.25336e-13 0)
(-8.14584e-14 -8.25336e-13 0)
(-2.15766e-13 -7.07178e-13 0)
(-2.8714e-13 -5.43141e-13 0)
(-3.01052e-13 -3.94437e-13 0)
(-2.81343e-13 -2.81343e-13 0)
(-2.48512e-13 -2.01349e-13 0)
(-2.13992e-13 -1.46081e-13 0)
(-1.82599e-13 -1.0789e-13 0)
(-1.55724e-13 -8.12002e-14 0)
(-1.61469e-12 -6.22458e-14 0)
(1.5398e-12 -6.69526e-14 0)
(1.33187e-13 -8.53239e-14 0)
(1.51417e-13 -1.1008e-13 0)
(1.70663e-13 -1.43586e-13 0)
(1.88758e-13 -1.88758e-13 0)
(2.01349e-13 -2.48512e-13 0)
(2.01135e-13 -3.2402e-13 0)
(1.78565e-13 -4.10883e-13 0)
(1.26109e-13 -4.93981e-13 0)
(4.59001e-14 -5.47163e-13 0)
(-4.59001e-14 -5.47163e-13 0)
(-1.26109e-13 -4.93981e-13 0)
(-1.78565e-13 -4.10883e-13 0)
(-2.01135e-13 -3.2402e-13 0)
(-2.01349e-13 -2.48512e-13 0)
(-1.88758e-13 -1.88758e-13 0)
(-1.70663e-13 -1.43586e-13 0)
(-1.51417e-13 -1.1008e-13 0)
(-1.33187e-13 -8.53239e-14 0)
(-1.5398e-12 -6.69526e-14 0)
(1.46241e-12 -6.87564e-14 0)
(1.12596e-13 -8.56122e-14 0)
(1.24337e-13 -1.07371e-13 0)
(1.35315e-13 -1.35315e-13 0)
(1.43586e-13 -1.70663e-13 0)
(1.46081e-13 -2.13992e-13 0)
(1.3868e-13 -2.64122e-13 0)
(1.17179e-13 -3.16523e-13 0)
(7.94863e-14 -3.62241e-13 0)
(2.82758e-14 -3.89538e-13 0)
(-2.82758e-14 -3.89538e-13 0)
(-7.94863e-14 -3.62241e-13 0)
(-1.17179e-13 -3.16523e-13 0)
(-1.3868e-13 -2.64122e-13 0)
(-1.46081e-13 -2.13992e-13 0)
(-1.43586e-13 -1.70663e-13 0)
(-1.35315e-13 -1.35315e-13 0)
(-1.24337e-13 -1.07371e-13 0)
(-1.12596e-13 -8.56122e-14 0)
(-1.46241e-12 -6.87564e-14 0)
(1.38543e-12 -6.83487e-14 0)
(9.45728e-14 -8.32449e-14 0)
(1.01715e-13 -1.01715e-13 0)
(1.07371e-13 -1.24337e-13 0)
(1.1008e-13 -1.51417e-13 0)
(1.0789e-13 -1.82599e-13 0)
(9.86038e-14 -2.16298e-13 0)
(8.04458e-14 -2.49172e-13 0)
(5.30936e-14 -2.76132e-13 0)
(1.86031e-14 -2.91536e-13 0)
(-1.86031e-14 -2.91536e-13 0)
(-5.30936e-14 -2.76132e-13 0)
(-8.04458e-14 -2.49172e-13 0)
(-9.86038e-14 -2.16298e-13 0)
(-1.0789e-13 -1.82599e-13 0)
(-1.1008e-13 -1.51417e-13 0)
(-1.07371e-13 -1.24337e-13 0)
(-1.01715e-13 -1.01715e-13 0)
(-9.45728e-14 -8.32449e-14 0)
(-1.38543e-12 -6.83487e-14 0)
(1.31082e-12 -6.63938e-14 0)
(7.92301e-14 -7.92301e-14 0)
(8.32449e-14 -9.45728e-14 0)
(8.56122e-14 -1.12596e-13 0)
(8.53239e-14 -1.33187e-13 0)
(8.12002e-14 -1.55724e-13 0)
(7.21074e-14 -1.78831e-13 0)
(5.73457e-14 -2.0026e-13 0)
(3.71224e-14 -2.17089e-13 0)
(1.28714e-14 -2.26426e-13 0)
(-1.28714e-14 -2.26426e-13 0)
(-3.71224e-14 -2.17089e-13 0)
(-5.73457e-14 -2.0026e-13 0)
(-7.21074e-14 -1.78831e-13 0)
(-8.12002e-14 -1.55724e-13 0)
(-8.53239e-14 -1.33187e-13 0)
(-8.56122e-14 -1.12596e-13 0)
(-8.32449e-14 -9.45728e-14 0)
(-7.92301e-14 -7.92301e-14 0)
(-1.31082e-12 -6.63938e-14 0)
(1.2398e-12 -1.2398e-12 0)
(6.63938e-14 -1.31082e-12 0)
(6.83487e-14 -1.38543e-12 0)
(6.87564e-14 -1.46241e-12 0)
(6.69526e-14 -1.5398e-12 0)
(6.22458e-14 -1.61469e-12 0)
(5.40677e-14 -1.68324e-12 0)
(4.21875e-14 -1.74086e-12 0)
(2.69271e-14 -1.78278e-12 0)
(9.26631e-15 -1.80491e-12 0)
(-9.26631e-15 -1.80491e-12 0)
(-2.69271e-14 -1.78278e-12 0)
(-4.21875e-14 -1.74086e-12 0)
(-5.40677e-14 -1.68324e-12 0)
(-6.22458e-14 -1.61469e-12 0)
(-6.69526e-14 -1.5398e-12 0)
(-6.87564e-14 -1.46241e-12 0)
(-6.83487e-14 -1.38543e-12 0)
(-6.63938e-14 -1.31082e-12 0)
(-1.2398e-12 -1.2398e-12 0)
)
;

boundaryField
{
    movingWall
    {
        type            fixedValue;
        value           uniform (1 0 0);
    }
    fixedWalls
    {
        type            fixedValue;
        value           uniform (0 0 0);
    }
    frontAndBack
    {
        type            empty;
    }
}


// ************************************************************************* //
