/*--------------------------------*- C++ -*----------------------------------*\
| =========                 |                                                 |
| \\      /  F ield         | OpenFOAM: The Open Source CFD Toolbox           |
|  \\    /   O peration     | Version:  v2012                                 |
|   \\  /    A nd           | Website:  www.openfoam.com                      |
|    \\/     M anipulation  |                                                 |
\*---------------------------------------------------------------------------*/
FoamFile
{
    version     2.0;
    format      ascii;
    class       volVectorField;
    location    "5";
    object      U;
}
// * * * * * * * * * * * * * * * * * * * * * * * * * * * * * * * * * * * * * //

dimensions      [0 1 -1 0 0 0 0];


internalField   nonuniform List<vector> 
400
(
(-1.29938e-11 -1.29938e-11 0)
(-6.95843e-13 -1.37381e-11 0)
(-7.16331e-13 -1.452e-11 0)
(-7.20604e-13 -1.53269e-11 0)
(-7.017e-13 -1.61379e-11 0)
(-6.5237e-13 -1.69228e-11 0)
(-5.66658e-13 -1.76413e-11 0)
(-4.42148e-13 -1.82452e-11 0)
(-2.8221e-13 -1.86844e-11 0)
(-9.71159e-14 -1.89165e-11 0)
(9.71159e-14 -1.89165e-11 0)
(2.8221e-13 -1.86844e-11 0)
(4.42148e-13 -1.82452e-11 0)
(5.66658e-13 -1.76413e-11 0)
(6.5237e-13 -1.69228e-11 0)
(7.017e-13 -1.61379e-11 0)
(7.20604e-13 -1.53269e-11 0)
(7.16331e-13 -1.452e-11 0)
(6.95843e-13 -1.37381e-11 0)
(1.29938e-11 -1.29938e-11 0)
(-1.37381e-11 -6.95843e-13 0)
(-8.30374e-13 -8.30374e-13 0)
(-8.72451e-13 -9.91174e-13 0)
(-8.97262e-13 -1.18007e-12 0)
(-8.9424e-13 -1.39587e-12 0)
(-8.51022e-13 -1.63207e-12 0)
(-7.55725e-13 -1.87425e-12 0)
(-6.01014e-13 -2.09883e-12 0)
(-3.89062e-13 -2.27521e-12 0)
(-1.34899e-13 -2.37307e-12 0)
(1.34899e-13 -2.37307e-12 0)
(3.89062e-13 -2.27521e-12 0)
(6.01014e-13 -2.09883e-12 0)
(7.55725e-13 -1.87425e-12 0)
(8.51022e-13 -1.63207e-12 0)
(8.9424e-13 -1.39587e-12 0)
(8.97262e-13 -1.18007e-12 0)
(8.72451e-13 -9.91174e-13 0)
(8.30374e-13 -8.30374e-13 0)
(1.37381e-11 -6.95843e-13 0)
(-1.452e-11 -7.16331e-13 0)
(-9.91174e-13 -8.72451e-13 0)
(-1.06603e-12 -1.06603e-12 0)
(-1.1253e-12 -1.30311e-12 0)
(-1.1537e-12 -1.58693e-12 0)
(-1.13074e-12 -1.91374e-12 0)
(-1.03342e-12 -2.26692e-12 0)
(-8.43115e-13 -2.61146e-12 0)
(-5.5645e-13 -2.89401e-12 0)
(-1.94971e-13 -3.05545e-12 0)
(1.94971e-13 -3.05545e-12 0)
(5.5645e-13 -2.89401e-12 0)
(8.43115e-13 -2.61146e-12 0)
(1.03342e-12 -2.26692e-12 0)
(1.13074e-12 -1.91374e-12 0)
(1.1537e-12 -1.58693e-12 0)
(1.1253e-12 -1.30311e-12 0)
(1.06603e-12 -1.06603e-12 0)
(9.91174e-13 -8.72451e-13 0)
(1.452e-11 -7.16331e-13 0)
(-1.53269e-11 -7.20604e-13 0)
(-1.18007e-12 -8.97262e-13 0)
(-1.30311e-12 -1.1253e-12 0)
(-1.41817e-12 -1.41817e-12 0)
(-1.50486e-12 -1.78864e-12 0)
(-1.53101e-12 -2.24275e-12 0)
(-1.45345e-12 -2.76814e-12 0)
(-1.2281e-12 -3.31733e-12 0)
(-8.3306e-13 -3.79648e-12 0)
(-2.96346e-13 -4.08257e-12 0)
(2.96346e-13 -4.08257e-12 0)
(8.3306e-13 -3.79648e-12 0)
(1.2281e-12 -3.31733e-12 0)
(1.45345e-12 -2.76814e-12 0)
(1.53101e-12 -2.24275e-12 0)
(1.50486e-12 -1.78864e-12 0)
(1.41817e-12 -1.41817e-12 0)
(1.30311e-12 -1.1253e-12 0)
(1.18007e-12 -8.97262e-13 0)
(1.53269e-11 -7.20604e-13 0)
(-1.61379e-11 -7.017e-13 0)
(-1.39587e-12 -8.9424e-13 0)
(-1.58693e-12 -1.1537e-12 0)
(-1.78864e-12 -1.50486e-12 0)
(-1.97828e-12 -1.97828e-12 0)
(-2.11025e-12 -2.60454e-12 0)
(-2.108e-12 -3.3959e-12 0)
(-1.87145e-12 -4.30628e-12 0)
(-1.32169e-12 -5.17718e-12 0)
(-4.81058e-13 -5.73457e-12 0)
(4.81058e-13 -5.73457e-12 0)
(1.32169e-12 -5.17718e-12 0)
(1.87145e-12 -4.30628e-12 0)
(2.108e-12 -3.3959e-12 0)
(2.11025e-12 -2.60454e-12 0)
(1.97828e-12 -1.97828e-12 0)
(1.78864e-12 -1.50486e-12 0)
(1.58693e-12 -1.1537e-12 0)
(1.39587e-12 -8.9424e-13 0)
(1.61379e-11 -7.017e-13 0)
(-1.69228e-11 -6.5237e-13 0)
(-1.63207e-12 -8.51022e-13 0)
(-1.91374e-12 -1.13074e-12 0)
(-2.24275e-12 -1.53101e-12 0)
(-2.60454e-12 -2.11025e-12 0)
(-2.94863e-12 -2.94863e-12 0)
(-3.15518e-12 -4.13391e-12 0)
(-3.00938e-12 -5.69241e-12 0)
(-2.26135e-12 -7.41161e-12 0)
(-8.53728e-13 -8.64997e-12 0)
(8.53728e-13 -8.64997e-12 0)
(2.26135e-12 -7.41161e-12 0)
(3.00938e-12 -5.69241e-12 0)
(3.15518e-12 -4.13391e-12 0)
(2.94863e-12 -2.94863e-12 0)
(2.60454e-12 -2.11025e-12 0)
(2.24275e-12 -1.53101e-12 0)
(1.91374e-12 -1.13074e-12 0)
(1.63207e-12 -8.51022e-13 0)
(1.69228e-11 -6.5237e-13 0)
(-1.76413e-11 -5.66658e-13 0)
(-1.87425e-12 -7.55725e-13 0)
(-2.26692e-12 -1.03342e-12 0)
(-2.76814e-12 -1.45345e-12 0)
(-3.3959e-12 -2.108e-12 0)
(-4.13391e-12 -3.15518e-12 0)
(-4.85178e-12 -4.85178e-12 0)
(-5.14915e-12 -7.52926e-12 0)
(-4.27924e-12 -1.12344e-11 0)
(-1.71942e-12 -1.45654e-11 0)
(1.71942e-12 -1.45654e-11 0)
(4.27924e-12 -1.12344e-11 0)
(5.14915e-12 -7.52926e-12 0)
(4.85178e-12 -4.85178e-12 0)
(4.13391e-12 -3.15518e-12 0)
(3.3959e-12 -2.108e-12 0)
(2.76814e-12 -1.45345e-12 0)
(2.26692e-12 -1.03342e-12 0)
(1.87425e-12 -7.55725e-13 0)
(1.76413e-11 -5.66658e-13 0)
(-1.82452e-11 -4.42148e-13 0)
(-2.09883e-12 -6.01014e-13 0)
(-2.61146e-12 -8.43115e-13 0)
(-3.31733e-12 -1.2281e-12 0)
(-4.30628e-12 -1.87145e-12 0)
(-5.69241e-12 -3.00938e-12 0)
(-7.52926e-12 -5.14915e-12 0)
(-9.39202e-12 -9.39202e-12 0)
(-9.29748e-12 -1.77461e-11 0)
(-4.1847e-12 -2.97151e-11 0)
(4.1847e-12 -2.97151e-11 0)
(9.29748e-12 -1.77461e-11 0)
(9.39202e-12 -9.39202e-12 0)
(7.52926e-12 -5.14915e-12 0)
(5.69241e-12 -3.00938e-12 0)
(4.30628e-12 -1.87145e-12 0)
(3.31733e-12 -1.2281e-12 0)
(2.61146e-12 -8.43115e-13 0)
(2.09883e-12 -6.01014e-13 0)
(1.82452e-11 -4.42148e-13 0)
(-1.86844e-11 -2.8221e-13 0)
(-2.27521e-12 -3.89062e-13 0)
(-2.89401e-12 -5.5645e-13 0)
(-3.79648e-12 -8.3306e-13 0)
(-5.17718e-12 -1.32169e-12 0)
(-7.41161e-12 -2.26135e-12 0)
(-1.12344e-11 -4.27924e-12 0)
(-1.77461e-11 -9.29748e-12 0)
(-2.46023e-11 -2.46023e-11 0)
(-1.36884e-11 -8.68625e-11 0)
(1.36884e-11 -8.68625e-11 0)
(2.46023e-11 -2.46023e-11 0)
(1.77461e-11 -9.29748e-12 0)
(1.12344e-11 -4.27924e-12 0)
(7.41161e-12 -2.26135e-12 0)
(5.17718e-12 -1.32169e-12 0)
(3.79648e-12 -8.3306e-13 0)
(2.89401e-12 -5.5645e-13 0)
(2.27521e-12 -3.89062e-13 0)
(1.86844e-11 -2.8221e-13 0)
(-1.89165e-11 -9.71159e-14 0)
(-2.37307e-12 -1.34899e-13 0)
(-3.05545e-12 -1.94971e-13 0)
(-4.08257e-12 -2.96346e-13 0)
(-5.73457e-12 -4.81058e-13 0)
(-8.64997e-12 -8.53728e-13 0)
(-1.45654e-11 -1.71942e-12 0)
(-2.97151e-11 -4.1847e-12 0)
(-8.68625e-11 -1.36884e-11 0)
(-6.64449e-11 -6.64449e-11 0)
(6.64449e-11 -6.64449e-11 0)
(8.68625e-11 -1.36884e-11 0)
(2.97151e-11 -4.1847e-12 0)
(1.45654e-11 -1.71942e-12 0)
(8.64997e-12 -8.53728e-13 0)
(5.73457e-12 -4.81058e-13 0)
(4.08257e-12 -2.96346e-13 0)
(3.05545e-12 -1.94971e-13 0)
(2.37307e-12 -1.34899e-13 0)
(1.89165e-11 -9.71159e-14 0)
(-1.89165e-11 9.71159e-14 0)
(-2.37307e-12 1.34899e-13 0)
(-3.05545e-12 1.94971e-13 0)
(-4.08257e-12 2.96346e-13 0)
(-5.73457e-12 4.81058e-13 0)
(-8.64997e-12 8.53728e-13 0)
(-1.45654e-11 1.71942e-12 0)
(-2.97151e-11 4.1847e-12 0)
(-8.68625e-11 1.36884e-11 0)
(-6.64449e-11 6.64449e-11 0)
(6.64449e-11 6.64449e-11 0)
(8.68625e-11 1.36884e-11 0)
(2.97151e-11 4.1847e-12 0)
(1.45654e-11 1.71942e-12 0)
(8.64997e-12 8.53728e-13 0)
(5.73457e-12 4.81058e-13 0)
(4.08257e-12 2.96346e-13 0)
(3.05545e-12 1.94971e-13 0)
(2.37307e-12 1.34899e-13 0)
(1.89165e-11 9.71159e-14 0)
(-1.86844e-11 2.8221e-13 0)
(-2.27521e-12 3.89062e-13 0)
(-2.89401e-12 5.5645e-13 0)
(-3.79648e-12 8.3306e-13 0)
(-5.17718e-12 1.32169e-12 0)
(-7.41161e-12 2.26135e-12 0)
(-1.12344e-11 4.27924e-12 0)
(-1.77461e-11 9.29748e-12 0)
(-2.46023e-11 2.46023e-11 0)
(-1.36884e-11 8.68625e-11 0)
(1.36884e-11 8.68625e-11 0)
(2.46023e-11 2.46023e-11 0)
(1.77461e-11 9.29748e-12 0)
(1.12344e-11 4.27924e-12 0)
(7.41161e-12 2.26135e-12 0)
(5.17718e-12 1.32169e-12 0)
(3.79648e-12 8.3306e-13 0)
(2.89401e-12 5.5645e-13 0)
(2.27521e-12 3.89062e-13 0)
(1.86844e-11 2.8221e-13 0)
(-1.82452e-11 4.42148e-13 0)
(-2.09883e-12 6.01014e-13 0)
(-2.61146e-12 8.43115e-13 0)
(-3.31733e-12 1.2281e-12 0)
(-4.30628e-12 1.87145e-12 0)
(-5.69241e-12 3.00938e-12 0)
(-7.52926e-12 5.14915e-12 0)
(-9.39202e-12 9.39202e-12 0)
(-9.29748e-12 1.77461e-11 0)
(-4.1847e-12 2.97151e-11 0)
(4.1847e-12 2.97151e-11 0)
(9.29748e-12 1.77461e-11 0)
(9.39202e-12 9.39202e-12 0)
(7.52926e-12 5.14915e-12 0)
(5.69241e-12 3.00938e-12 0)
(4.30628e-12 1.87145e-12 0)
(3.31733e-12 1.2281e-12 0)
(2.61146e-12 8.43115e-13 0)
(2.09883e-12 6.01014e-13 0)
(1.82452e-11 4.42148e-13 0)
(-1.76413e-11 5.66658e-13 0)
(-1.87425e-12 7.55725e-13 0)
(-2.26692e-12 1.03342e-12 0)
(-2.76814e-12 1.45345e-12 0)
(-3.3959e-12 2.108e-12 0)
(-4.13391e-12 3.15518e-12 0)
(-4.85178e-12 4.85178e-12 0)
(-5.14915e-12 7.52926e-12 0)
(-4.27924e-12 1.12344e-11 0)
(-1.71942e-12 1.45654e-11 0)
(1.71942e-12 1.45654e-11 0)
(4.27924e-12 1.12344e-11 0)
(5.14915e-12 7.52926e-12 0)
(4.85178e-12 4.85178e-12 0)
(4.13391e-12 3.15518e-12 0)
(3.3959e-12 2.108e-12 0)
(2.76814e-12 1.45345e-12 0)
(2.26692e-12 1.03342e-12 0)
(1.87425e-12 7.55725e-13 0)
(1.76413e-11 5.66658e-13 0)
(-1.69228e-11 6.5237e-13 0)
(-1.63207e-12 8.51022e-13 0)
(-1.91374e-12 1.13074e-12 0)
(-2.24275e-12 1.53101e-12 0)
(-2.60454e-12 2.11025e-12 0)
(-2.94863e-12 2.94863e-12 0)
(-3.15518e-12 4.13391e-12 0)
(-3.00938e-12 5.69241e-12 0)
(-2.26135e-12 7.41161e-12 0)
(-8.53728e-13 8.64997e-12 0)
(8.53728e-13 8.64997e-12 0)
(2.26135e-12 7.41161e-12 0)
(3.00938e-12 5.69241e-12 0)
(3.15518e-12 4.13391e-12 0)
(2.94863e-12 2.94863e-12 0)
(2.60454e-12 2.11025e-12 0)
(2.24275e-12 1.53101e-12 0)
(1.91374e-12 1.13074e-12 0)
(1.63207e-12 8.51022e-13 0)
(1.69228e-11 6.5237e-13 0)
(-1.61379e-11 7.017e-13 0)
(-1.39587e-12 8.9424e-13 0)
(-1.58693e-12 1.1537e-12 0)
(-1.78864e-12 1.50486e-12 0)
(-1.97828e-12 1.97828e-12 0)
(-2.11025e-12 2.60454e-12 0)
(-2.108e-12 3.3959e-12 0)
(-1.87145e-12 4.30628e-12 0)
(-1.32169e-12 5.17718e-12 0)
(-4.81058e-13 5.73457e-12 0)
(4.81058e-13 5.73457e-12 0)
(1.32169e-12 5.17718e-12 0)
(1.87145e-12 4.30628e-12 0)
(2.108e-12 3.3959e-12 0)
(2.11025e-12 2.60454e-12 0)
(1.97828e-12 1.97828e-12 0)
(1.78864e-12 1.50486e-12 0)
(1.58693e-12 1.1537e-12 0)
(1.39587e-12 8.9424e-13 0)
(1.61379e-11 7.017e-13 0)
(-1.53269e-11 7.20604e-13 0)
(-1.18007e-12 8.97262e-13 0)
(-1.30311e-12 1.1253e-12 0)
(-1.41817e-12 1.41817e-12 0)
(-1.50486e-12 1.78864e-12 0)
(-1.53101e-12 2.24275e-12 0)
(-1.45345e-12 2.76814e-12 0)
(-1.2281e-12 3.31733e-12 0)
(-8.3306e-13 3.79648e-12 0)
(-2.96346e-13 4.08257e-12 0)
(2.96346e-13 4.08257e-12 0)
(8.3306e-13 3.79648e-12 0)
(1.2281e-12 3.31733e-12 0)
(1.45345e-12 2.76814e-12 0)
(1.53101e-12 2.24275e-12 0)
(1.50486e-12 1.78864e-12 0)
(1.41817e-12 1.41817e-12 0)
(1.30311e-12 1.1253e-12 0)
(1.18007e-12 8.97262e-13 0)
(1.53269e-11 7.20604e-13 0)
(-1.452e-11 7.16331e-13 0)
(-9.91174e-13 8.72451e-13 0)
(-1.06603e-12 1.06603e-12 0)
(-1.1253e-12 1.30311e-12 0)
(-1.1537e-12 1.58693e-12 0)
(-1.13074e-12 1.91374e-12 0)
(-1.03342e-12 2.26692e-12 0)
(-8.43115e-13 2.61146e-12 0)
(-5.5645e-13 2.89401e-12 0)
(-1.94971e-13 3.05545e-12 0)
(1.94971e-13 3.05545e-12 0)
(5.5645e-13 2.89401e-12 0)
(8.43115e-13 2.61146e-12 0)
(1.03342e-12 2.26692e-12 0)
(1.13074e-12 1.91374e-12 0)
(1.1537e-12 1.58693e-12 0)
(1.1253e-12 1.30311e-12 0)
(1.06603e-12 1.06603e-12 0)
(9.91174e-13 8.72451e-13 0)
(1.452e-11 7.16331e-13 0)
(-1.37381e-11 6.95843e-13 0)
(-8.30374e-13 8.30374e-13 0)
(-8.72451e-13 9.91174e-13 0)
(-8.97262e-13 1.18007e-12 0)
(-8.9424e-13 1.39587e-12 0)
(-8.51022e-13 1.63207e-12 0)
(-7.55725e-13 1.87425e-12 0)
(-6.01014e-13 2.09883e-12 0)
(-3.89062e-13 2.27521e-12 0)
(-1.34899e-13 2.37307e-12 0)
(1.34899e-13 2.37307e-12 0)
(3.89062e-13 2.27521e-12 0)
(6.01014e-13 2.09883e-12 0)
(7.55725e-13 1.87425e-12 0)
(8.51022e-13 1.63207e-12 0)
(8.9424e-13 1.39587e-12 0)
(8.97262e-13 1.18007e-12 0)
(8.72451e-13 9.91174e-13 0)
(8.30374e-13 8.30374e-13 0)
(1.37381e-11 6.95843e-13 0)
(-1.29938e-11 1.29938e-11 0)
(-6.95843e-13 1.37381e-11 0)
(-7.16331e-13 1.452e-11 0)
(-7.20604e-13 1.53269e-11 0)
(-7.017e-13 1.61379e-11 0)
(-6.5237e-13 1.69228e-11 0)
(-5.66658e-13 1.76413e-11 0)
(-4.42148e-13 1.82452e-11 0)
(-2.8221e-13 1.86844e-11 0)
(-9.71159e-14 1.89165e-11 0)
(9.71159e-14 1.89165e-11 0)
(2.8221e-13 1.86844e-11 0)
(4.42148e-13 1.82452e-11 0)
(5.66658e-13 1.76413e-11 0)
(6.5237e-13 1.69228e-11 0)
(7.017e-13 1.61379e-11 0)
(7.20604e-13 1.53269e-11 0)
(7.16331e-13 1.452e-11 0)
(6.95843e-13 1.37381e-11 0)
(1.29938e-11 1.29938e-11 0)
)
;

boundaryField
{
    movingWall
    {
        type            fixedValue;
        value           uniform (1 0 0);
    }
    fixedWalls
    {
        type            fixedValue;
        value           uniform (0 0 0);
    }
    frontAndBack
    {
        type            empty;
    }
}


// ************************************************************************* //
