/*--------------------------------*- C++ -*----------------------------------*\
| =========                 |                                                 |
| \\      /  F ield         | OpenFOAM: The Open Source CFD Toolbox           |
|  \\    /   O peration     | Version:  v2012                                 |
|   \\  /    A nd           | Website:  www.openfoam.com                      |
|    \\/     M anipulation  |                                                 |
\*---------------------------------------------------------------------------*/
FoamFile
{
    version     2.0;
    format      ascii;
    class       volScalarField;
    location    "0.5";
    object      p;
}
// * * * * * * * * * * * * * * * * * * * * * * * * * * * * * * * * * * * * * //

dimensions      [0 2 -2 0 0 0 0];


internalField   nonuniform List<scalar> 
400
(
-0.597427
-0.60049
-0.604724
-0.607734
-0.608247
-0.605733
-0.600075
-0.591549
-0.580681
-0.568138
-0.554749
-0.541417
-0.528979
-0.518203
-0.5098
-0.504322
-0.502082
-0.50294
-0.505356
-0.503574
-0.594498
-0.597627
-0.602482
-0.605827
-0.606468
-0.604054
-0.598576
-0.590309
-0.579781
-0.56766
-0.554705
-0.541757
-0.529648
-0.519126
-0.510867
-0.505488
-0.50356
-0.505249
-0.508414
-0.50208
-0.590305
-0.593229
-0.59853
-0.601962
-0.602567
-0.60024
-0.59511
-0.587481
-0.577805
-0.566663
-0.554721
-0.542731
-0.531429
-0.521472
-0.513485
-0.508157
-0.506343
-0.508506
-0.510951
-0.491606
-0.587175
-0.590251
-0.596512
-0.600418
-0.601169
-0.598923
-0.593949
-0.586595
-0.577287
-0.56657
-0.555039
-0.543399
-0.532336
-0.52242
-0.5142
-0.508336
-0.505715
-0.506612
-0.503737
-0.448457
-0.586662
-0.590105
-0.597594
-0.602181
-0.603128
-0.600828
-0.595701
-0.588154
-0.578618
-0.567657
-0.555827
-0.543818
-0.532328
-0.521909
-0.513037
-0.50617
-0.50143
-0.496315
-0.470077
-0.254844
-0.589951
-0.593813
-0.60256
-0.607795
-0.608803
-0.606185
-0.600519
-0.592283
-0.581919
-0.57007
-0.55727
-0.544212
-0.531689
-0.520393
-0.511029
-0.504524
-0.502145
-0.504723
-0.504872
-0.450856
-0.59819
-0.602385
-0.61225
-0.617912
-0.618673
-0.615337
-0.608657
-0.599193
-0.58738
-0.573983
-0.55954
-0.54472
-0.53041
-0.517505
-0.506967
-0.500029
-0.498404
-0.503702
-0.512094
-0.495095
-0.6126
-0.616933
-0.627635
-0.633332
-0.633374
-0.628778
-0.620505
-0.609215
-0.595291
-0.579622
-0.562783
-0.545403
-0.528417
-0.512904
-0.500059
-0.491375
-0.488886
-0.494489
-0.506025
-0.502624
-0.634583
-0.638744
-0.649824
-0.65496
-0.653624
-0.647059
-0.636483
-0.62269
-0.605983
-0.587283
-0.567215
-0.546382
-0.525721
-0.506453
-0.489978
-0.478085
-0.473236
-0.477613
-0.489994
-0.491575
-0.66585
-0.669359
-0.680092
-0.683774
-0.68014
-0.670695
-0.656935
-0.639821
-0.619627
-0.597145
-0.572982
-0.547728
-0.522295
-0.497974
-0.47636
-0.459555
-0.450565
-0.45205
-0.463387
-0.465847
-0.708586
-0.710679
-0.719908
-0.720773
-0.713532
-0.700025
-0.682028
-0.660598
-0.636119
-0.609136
-0.580058
-0.549414
-0.518065
-0.487296
-0.458867
-0.435196
-0.419788
-0.416118
-0.424245
-0.425048
-0.765628
-0.765073
-0.770928
-0.766908
-0.754156
-0.735022
-0.711575
-0.684758
-0.655097
-0.622903
-0.588238
-0.55138
-0.513023
-0.474335
-0.437158
-0.404262
-0.379587
-0.367587
-0.369478
-0.366288
-0.840715
-0.83554
-0.834973
-0.82297
-0.801998
-0.775122
-0.744733
-0.711492
-0.675805
-0.637705
-0.596898
-0.553243
-0.50704
-0.45912
-0.411182
-0.366206
-0.328574
-0.303759
-0.29487
-0.284742
-0.938899
-0.926005
-0.913966
-0.889306
-0.856384
-0.819031
-0.779738
-0.738953
-0.696634
-0.652237
-0.604987
-0.554222
-0.499639
-0.441465
-0.380905
-0.320747
-0.265544
-0.221655
-0.195015
-0.17381
-1.06701
-1.04164
-1.00969
-0.965156
-0.915177
-0.864121
-0.813853
-0.764357
-0.714976
-0.664399
-0.611065
-0.553516
-0.490584
-0.421598
-0.346863
-0.268326
-0.189967
-0.118374
-0.06333
-0.0252484
-1.23392
-1.18882
-1.12311
-1.04775
-0.973943
-0.905526
-0.842885
-0.784546
-0.728485
-0.672404
-0.613883
-0.550525
-0.480067
-0.400562
-0.310828
-0.211026
-0.103162
0.00755033
0.106799
0.169594
-1.44974
-1.37419
-1.25257
-1.13089
-1.02547
-0.936388
-0.86046
-0.793904
-0.732793
-0.673341
-0.611949
-0.545114
-0.469328
-0.381066
-0.276998
-0.154264
-0.010786
0.152756
0.318562
0.416523
-1.72188
-1.60112
-1.39049
-1.20275
-1.05745
-0.946488
-0.859399
-0.787801
-0.725069
-0.665744
-0.605022
-0.538327
-0.460921
-0.367562
-0.252248
-0.107852
0.0743735
0.303334
0.563817
0.710103
-2.0388
-1.85753
-1.51972
-1.25
-1.06194
-0.931467
-0.837539
-0.765629
-0.705761
-0.650658
-0.594443
-0.531714
-0.456795
-0.362996
-0.241748
-0.0813138
0.13527
0.431349
0.808735
1.0141
-2.3802
-2.14795
-1.66581
-1.31421
-1.08412
-0.932874
-0.829493
-0.754076
-0.693701
-0.639459
-0.584472
-0.52257
-0.447278
-0.350811
-0.222779
-0.0481392
0.196216
0.545864
1.03612
1.28649
)
;

boundaryField
{
    movingWall
    {
        type            zeroGradient;
    }
    fixedWalls
    {
        type            zeroGradient;
    }
    frontAndBack
    {
        type            empty;
    }
}


// ************************************************************************* //
