/*--------------------------------*- C++ -*----------------------------------*\
| =========                 |                                                 |
| \\      /  F ield         | OpenFOAM: The Open Source CFD Toolbox           |
|  \\    /   O peration     | Version:  v2012                                 |
|   \\  /    A nd           | Website:  www.openfoam.com                      |
|    \\/     M anipulation  |                                                 |
\*---------------------------------------------------------------------------*/
FoamFile
{
    version     2.0;
    format      ascii;
    class       surfaceScalarField;
    location    "0.5";
    object      phi;
}
// * * * * * * * * * * * * * * * * * * * * * * * * * * * * * * * * * * * * * //

dimensions      [0 3 -1 0 0 0 0];
oriented        oriented;


internalField   nonuniform List<scalar> 
760
(
-1.49124e-08
1.37864e-08
-6.21293e-08
9.71638e-08
-1.57479e-07
1.90251e-07
-2.90984e-07
2.60755e-07
-4.43902e-07
2.98534e-07
-5.98597e-07
3.03171e-07
-7.40079e-07
2.78588e-07
-8.56517e-07
2.30118e-07
-9.3932e-07
1.63837e-07
-9.82771e-07
8.62726e-08
-9.84408e-07
3.73647e-09
-9.45278e-07
-7.7363e-08
-8.69246e-07
-1.50505e-07
-7.62648e-07
-2.09869e-07
-6.34677e-07
-2.50713e-07
-4.97737e-07
-2.69124e-07
-3.67921e-07
-2.62404e-07
-2.63201e-07
-2.31669e-07
-1.55764e-07
-1.87062e-07
-1.42929e-07
-1.04135e-07
6.12713e-08
-2.69045e-07
2.60293e-07
-5.30126e-07
4.6075e-07
-8.69133e-07
6.07549e-07
-1.2451e-06
6.83124e-07
-1.61954e-06
6.87257e-07
-1.95942e-06
6.28104e-07
-2.23794e-06
5.17243e-07
-2.4354e-06
3.67687e-07
-2.53927e-06
1.93468e-07
-2.54424e-06
8.77088e-09
-2.45272e-06
-1.71943e-07
-2.27439e-06
-3.34404e-07
-2.02525e-06
-4.65799e-07
-1.72705e-06
-5.55726e-07
-1.40762e-06
-5.97142e-07
-1.10065e-06
-5.88697e-07
-8.36561e-07
-5.40077e-07
-5.10907e-07
-4.80683e-07
-4.29933e-07
-2.13307e-07
1.64081e-07
-5.0181e-07
5.36639e-07
-9.14801e-07
8.74268e-07
-1.42813e-06
1.1116e-06
-1.98376e-06
1.22689e-06
-2.52921e-06
1.22168e-06
-3.01995e-06
1.10959e-06
-3.42e-06
9.10049e-07
-3.70258e-06
6.45101e-07
-3.85063e-06
3.38645e-07
-3.85726e-06
1.51112e-08
-3.72649e-06
-3.00363e-07
-3.47281e-06
-5.82785e-07
-3.12003e-06
-8.09181e-07
-2.70093e-06
-9.60636e-07
-2.25854e-06
-1.02578e-06
-1.8469e-06
-1.00782e-06
-1.51235e-06
-9.37935e-07
-9.90219e-07
-9.05152e-07
-1.08235e-06
-3.21153e-07
3.23489e-07
-7.28957e-07
9.32841e-07
-1.28483e-06
1.44127e-06
-1.95694e-06
1.78346e-06
-2.67047e-06
1.93806e-06
-3.36153e-06
1.91139e-06
-3.97743e-06
1.72509e-06
-4.47599e-06
1.40845e-06
-4.82592e-06
9.94604e-07
-5.00741e-06
5.19552e-07
-5.0126e-06
1.98866e-08
-4.84679e-06
-4.66496e-07
-4.52859e-06
-9.00775e-07
-4.08925e-06
-1.24543e-06
-3.57418e-06
-1.46708e-06
-3.04871e-06
-1.54112e-06
-2.60682e-06
-1.46013e-06
-2.35673e-06
-1.24815e-06
-1.70333e-06
-9.92219e-07
-9.0528e-07
-4.24224e-07
5.35038e-07
-9.45936e-07
1.44068e-06
-1.63763e-06
2.14983e-06
-2.45847e-06
2.60632e-06
-3.31647e-06
2.79527e-06
-4.13719e-06
2.73226e-06
-4.86159e-06
2.45029e-06
-5.44326e-06
1.99088e-06
-5.84809e-06
1.39962e-06
-6.05468e-06
7.25716e-07
-6.05422e-06
1.88415e-08
-5.85196e-06
-6.69645e-07
-5.4685e-06
-1.28571e-06
-4.94031e-06
-1.77433e-06
-4.32515e-06
-2.08249e-06
-3.71854e-06
-2.16313e-06
-3.29571e-06
-1.97996e-06
-3.47027e-06
-1.51141e-06
-2.92713e-06
-7.47083e-07
3.31099e-07
-5.24483e-07
7.96361e-07
-1.15646e-06
2.05517e-06
-1.97852e-06
2.99256e-06
-2.93996e-06
3.56964e-06
-3.93151e-06
3.78482e-06
-4.86887e-06
3.6685e-06
-5.68814e-06
3.26917e-06
-6.34034e-06
2.64307e-06
-6.78988e-06
1.84921e-06
-7.01471e-06
9.5014e-07
-7.0048e-06
8.45471e-09
-6.76295e-06
-9.11645e-07
-6.3069e-06
-1.74172e-06
-5.66959e-06
-2.40965e-06
-4.9021e-06
-2.84297e-06
-4.08238e-06
-2.97379e-06
-3.32925e-06
-2.74455e-06
-2.79276e-06
-2.11535e-06
-1.90533e-06
-1.06326e-06
4.05971e-07
-6.25518e-07
1.10759e-06
-1.36634e-06
2.7746e-06
-2.31396e-06
3.96454e-06
-3.40739e-06
4.66466e-06
-4.52029e-06
4.89448e-06
-5.55968e-06
4.7057e-06
-6.45885e-06
4.16703e-06
-7.16837e-06
3.3522e-06
-7.6527e-06
2.33433e-06
-7.89038e-06
1.18821e-06
-7.87056e-06
-1.18361e-08
-7.59219e-06
-1.19027e-06
-7.0673e-06
-2.26629e-06
-6.32231e-06
-3.15271e-06
-5.40055e-06
-3.75933e-06
-4.3696e-06
-3.99918e-06
-3.33272e-06
-3.7986e-06
-2.41934e-06
-3.11563e-06
-1.41593e-06
-1.96002e-06
-4.60701e-07
-7.30884e-07
1.47083e-06
-1.58087e-06
3.59909e-06
-2.64845e-06
5.06058e-06
-3.86217e-06
5.88004e-06
-5.0795e-06
6.10779e-06
-6.20085e-06
5.82456e-06
-7.15976e-06
5.12445e-06
-7.9096e-06
4.10151e-06
-8.4172e-06
2.84369e-06
-8.66317e-06
1.43587e-06
-8.63681e-06
-3.85847e-08
-8.33316e-06
-1.49513e-06
-7.75715e-06
-2.84304e-06
-6.92709e-06
-3.98201e-06
-5.87859e-06
-4.80374e-06
-4.67472e-06
-5.19761e-06
-3.42169e-06
-5.06207e-06
-2.27261e-06
-4.32685e-06
-1.19436e-06
-2.97576e-06
-1.08203e-06
-8.43759e-07
1.88988e-06
-1.80394e-06
4.52918e-06
-2.98294e-06
6.27257e-06
-4.29892e-06
7.19791e-06
-5.59511e-06
7.39923e-06
-6.76877e-06
6.99577e-06
-7.75793e-06
6.11257e-06
-8.52356e-06
4.86621e-06
-9.03854e-06
3.36018e-06
-9.28745e-06
1.68682e-06
-9.26087e-06
-6.57601e-08
-8.95046e-06
-1.80798e-06
-8.35327e-06
-3.4426e-06
-7.47732e-06
-4.85866e-06
-6.34799e-06
-5.9293e-06
-5.0229e-06
-6.51528e-06
-3.61374e-06
-6.47531e-06
-2.30042e-06
-5.68822e-06
-1.14045e-06
-4.08223e-06
-1.65141e-06
-9.66915e-07
2.36999e-06
-2.03765e-06
5.56416e-06
-3.31355e-06
7.58619e-06
-4.70302e-06
8.58954e-06
-6.03899e-06
8.72925e-06
-7.22112e-06
8.17507e-06
-8.19759e-06
7.08892e-06
-8.94283e-06
5.61075e-06
-9.44126e-06
3.85902e-06
-9.68435e-06
1.93087e-06
-9.66504e-06
-8.62038e-08
-9.37223e-06
-2.10371e-06
-8.79442e-06
-4.02334e-06
-7.9264e-06
-5.72786e-06
-6.77828e-06
-7.07355e-06
-5.39543e-06
-7.88945e-06
-3.88776e-06
-7.98538e-06
-2.45285e-06
-7.1703e-06
-1.19309e-06
-5.29101e-06
-2.24343e-06
-1.10243e-06
2.91738e-06
-2.2812e-06
6.69976e-06
-3.62925e-06
8.97646e-06
-5.04689e-06
1.00099e-05
-6.36367e-06
1.00389e-05
-7.49075e-06
9.29814e-06
-8.39408e-06
7.99265e-06
-9.06776e-06
6.28537e-06
-9.51406e-06
4.30587e-06
-9.73586e-06
2.15237e-06
-9.72999e-06
-9.36759e-08
-9.48314e-06
-2.35252e-06
-8.97456e-06
-4.53291e-06
-8.18261e-06
-6.51866e-06
-7.09593e-06
-8.15488e-06
-5.73711e-06
-9.23973e-06
-4.19975e-06
-9.52714e-06
-2.68399e-06
-8.73909e-06
-1.31276e-06
-6.60919e-06
-2.89688e-06
-1.2502e-06
3.53874e-06
-2.5277e-06
7.9248e-06
-3.90647e-06
1.04013e-05
-5.28279e-06
1.13899e-05
-6.49415e-06
1.1243e-05
-7.47677e-06
1.02758e-05
-8.22515e-06
8.74024e-06
-8.75946e-06
6.82145e-06
-9.10481e-06
4.65303e-06
-9.28034e-06
2.32748e-06
-9.2899e-06
-8.60372e-08
-9.11912e-06
-2.52433e-06
-8.73774e-06
-4.91281e-06
-8.10476e-06
-7.14677e-06
-7.18072e-06
-9.07054e-06
-5.95355e-06
-1.04588e-05
-4.48154e-06
-1.10078e-05
-2.94509e-06
-1.03366e-05
-1.46938e-06
-8.02617e-06
-3.63284e-06
-1.4038e-06
4.23942e-06
-2.75639e-06
9.215e-06
-4.09768e-06
1.17911e-05
-5.32913e-06
1.26251e-05
-6.3146e-06
1.22214e-05
-7.03309e-06
1.09889e-05
-7.52093e-06
9.22491e-06
-7.83164e-06
7.13162e-06
-8.01585e-06
4.83827e-06
-8.11099e-06
2.42254e-06
-8.13116e-06
-6.68174e-08
-8.06392e-06
-2.5911e-06
-7.87132e-06
-5.10191e-06
-7.49268e-06
-7.51792e-06
-6.85541e-06
-9.69726e-06
-5.90068e-06
-1.14066e-05
-4.62903e-06
-1.22928e-05
-3.17e-06
-1.18632e-05
-1.62927e-06
-9.5006e-06
-4.45661e-06
-1.54054e-06
5.01725e-06
-2.91596e-06
1.05191e-05
-4.10951e-06
1.30324e-05
-5.04532e-06
1.35618e-05
-5.64459e-06
1.28106e-05
-5.95053e-06
1.12865e-05
-6.05253e-06
9.32162e-06
-6.0431e-06
7.12e-06
-5.9993e-06
4.79462e-06
-5.97529e-06
2.39952e-06
-5.99561e-06
-4.44157e-08
-6.05283e-06
-2.52955e-06
-6.10607e-06
-5.04143e-06
-6.07982e-06
-7.53372e-06
-5.8698e-06
-9.8956e-06
-5.36272e-06
-1.1909e-05
-4.47771e-06
-1.31949e-05
-3.2507e-06
-1.31566e-05
-1.73744e-06
-1.09392e-05
-5.34873e-06
-1.59764e-06
5.84574e-06
-2.88768e-06
1.17303e-05
-3.76018e-06
1.39428e-05
-4.18857e-06
1.39869e-05
-4.19952e-06
1.28083e-05
-3.92577e-06
1.09992e-05
-3.51466e-06
8.90036e-06
-3.09343e-06
6.69383e-06
-2.75997e-06
4.46035e-06
-2.58046e-06
2.22172e-06
-2.58758e-06
-3.28802e-08
-2.78041e-06
-2.3289e-06
-3.12163e-06
-4.68887e-06
-3.53191e-06
-7.10938e-06
-3.88723e-06
-9.52753e-06
-4.02448e-06
-1.17693e-05
-3.76407e-06
-1.34704e-05
-2.9953e-06
-1.39679e-05
-1.68704e-06
-1.21612e-05
-6.24234e-06
-1.41597e-06
6.63537e-06
-2.40265e-06
1.26341e-05
-2.69348e-06
1.42394e-05
-2.3399e-06
1.36297e-05
-1.53651e-06
1.19995e-05
-5.24676e-07
9.9776e-06
4.9668e-07
7.86693e-06
1.38245e-06
5.79736e-06
2.03305e-06
3.80316e-06
2.38416e-06
1.86889e-06
2.40125e-06
-4.67618e-08
2.0777e-06
-1.99756e-06
1.43851e-06
-4.03803e-06
5.49475e-07
-6.20692e-06
-4.70447e-07
-8.49854e-06
-1.43289e-06
-1.08098e-05
-2.06275e-06
-1.28441e-05
-2.05164e-06
-1.39512e-05
-1.25907e-06
-1.28533e-05
-6.98279e-06
-6.06483e-07
7.1485e-06
-8.65468e-07
1.28184e-05
-2.16488e-07
1.35209e-05
1.21681e-06
1.22138e-05
3.0133e-06
1.02433e-05
4.83512e-06
8.18425e-06
6.47081e-06
6.24673e-06
7.79243e-06
4.48246e-06
8.72446e-06
2.8735e-06
9.22286e-06
1.3717e-06
9.26237e-06
-8.4934e-08
8.83159e-06
-1.56566e-06
7.93574e-06
-3.14258e-06
6.60686e-06
-4.88302e-06
4.92327e-06
-6.83116e-06
3.04849e-06
-8.96469e-06
1.30861e-06
-1.1101e-05
2.29616e-07
-1.27125e-05
4.10931e-09
-1.25378e-05
-7.26665e-06
1.78307e-06
6.9323e-06
3.00688e-06
1.16659e-05
4.96548e-06
1.13958e-05
7.64307e-06
9.65392e-06
1.04099e-05
7.67064e-06
1.29023e-05
5.85506e-06
1.49644e-05
4.29979e-06
1.65385e-05
2.98409e-06
1.76065e-05
1.85209e-06
1.8163e-05
8.39795e-07
1.8202e-05
-1.17969e-07
1.77112e-05
-1.08756e-06
1.66737e-05
-2.13797e-06
1.50741e-05
-3.34043e-06
1.29169e-05
-4.7613e-06
1.02738e-05
-6.43638e-06
7.42005e-06
-8.30266e-06
5.04395e-06
-1.00416e-05
3.0998e-06
-1.07122e-05
-6.66957e-06
8.17321e-06
4.65877e-06
1.18921e-05
7.52678e-06
1.51464e-05
6.95295e-06
1.86919e-05
5.61933e-06
2.18795e-05
4.28455e-06
2.44781e-05
3.15148e-06
2.64698e-05
2.2385e-06
2.79009e-05
1.50676e-06
2.88227e-05
9.06012e-07
2.92712e-05
3.88416e-07
2.92608e-05
-8.98591e-08
2.87828e-05
-5.70889e-07
2.78051e-05
-1.09773e-06
2.62732e-05
-1.71632e-06
2.41157e-05
-2.47469e-06
2.12742e-05
-3.41332e-06
1.78453e-05
-4.53294e-06
1.45381e-05
-5.71052e-06
1.03363e-05
-6.50342e-06
-4.30802e-06
2.53372e-05
3.10935e-05
3.39573e-05
3.65765e-05
3.86235e-05
4.01165e-05
4.11584e-05
4.18448e-05
4.22438e-05
4.23952e-05
4.23149e-05
4.19973e-05
4.14158e-05
4.05201e-05
3.92309e-05
3.74396e-05
3.50628e-05
3.26887e-05
2.77137e-05
)
;

boundaryField
{
    movingWall
    {
        type            calculated;
        value           uniform 0;
    }
    fixedWalls
    {
        type            calculated;
        value           uniform 0;
    }
    frontAndBack
    {
        type            empty;
        value           nonuniform List<scalar> 0();
    }
}


// ************************************************************************* //
