/*--------------------------------*- C++ -*----------------------------------*\
| =========                 |                                                 |
| \\      /  F ield         | OpenFOAM: The Open Source CFD Toolbox           |
|  \\    /   O peration     | Version:  v2012                                 |
|   \\  /    A nd           | Website:  www.openfoam.com                      |
|    \\/     M anipulation  |                                                 |
\*---------------------------------------------------------------------------*/
FoamFile
{
    version     2.0;
    format      ascii;
    class       volVectorField;
    location    "0.5";
    object      U;
}
// * * * * * * * * * * * * * * * * * * * * * * * * * * * * * * * * * * * * * //

dimensions      [0 1 -1 0 0 0 0];


internalField   nonuniform List<vector> 
400
(
(-7.01497e-05 5.83839e-05 0)
(-0.000526347 0.000821282 0)
(-0.00195883 0.00172662 0)
(-0.00434032 0.00242816 0)
(-0.00729903 0.0028127 0)
(-0.010457 0.002874 0)
(-0.0134869 0.00265065 0)
(-0.0161163 0.00219337 0)
(-0.0181444 0.00156264 0)
(-0.0194284 0.000823357 0)
(-0.0198824 3.47813e-05 0)
(-0.0194939 -0.000742734 0)
(-0.0183172 -0.00144486 0)
(-0.0164527 -0.00201444 0)
(-0.0140532 -0.00240543 0)
(-0.0113338 -0.00257538 0)
(-0.00857564 -0.00248551 0)
(-0.00614119 -0.00212976 0)
(-0.00438683 -0.0015972 0)
(-0.00184372 -0.0010885 0)
(-0.00090365 0.000493071 0)
(-0.00326176 0.00306527 0)
(-0.00750004 0.00588341 0)
(-0.013705 0.00800205 0)
(-0.0210603 0.00912868 0)
(-0.0287436 0.00925282 0)
(-0.0360381 0.00849286 0)
(-0.0423388 0.00701136 0)
(-0.0471787 0.00499084 0)
(-0.0502374 0.00262755 0)
(-0.0513335 0.000114677 0)
(-0.0504362 -0.00235179 0)
(-0.0476724 -0.00457534 0)
(-0.0433034 -0.00638034 0)
(-0.0377066 -0.00762308 0)
(-0.0313753 -0.00818957 0)
(-0.0249294 -0.00801063 0)
(-0.0190966 -0.00713701 0)
(-0.0143658 -0.00588526 0)
(-0.00607044 -0.00462865 0)
(-0.00197515 0.00195778 0)
(-0.00655714 0.00734646 0)
(-0.0135153 0.0125466 0)
(-0.0230768 0.0162999 0)
(-0.0340484 0.0181963 0)
(-0.0453021 0.0182375 0)
(-0.0558662 0.0166313 0)
(-0.0649319 0.0136783 0)
(-0.071868 0.00971662 0)
(-0.0762351 0.00511118 0)
(-0.07779 0.000236158 0)
(-0.0765006 -0.00452592 0)
(-0.0725589 -0.00880082 0)
(-0.0663535 -0.0122516 0)
(-0.0584477 -0.014606 0)
(-0.0495893 -0.0156961 0)
(-0.0407523 -0.0155372 0)
(-0.0331238 -0.0144661 0)
(-0.0273702 -0.013342 0)
(-0.0122386 -0.0125687 0)
(-0.00304505 0.00460544 0)
(-0.00980108 0.0141191 0)
(-0.0193572 0.0224241 0)
(-0.0320359 0.0281641 0)
(-0.0462416 0.0308792 0)
(-0.0605773 0.0306295 0)
(-0.073884 0.0277523 0)
(-0.0852132 0.0227236 0)
(-0.0938262 0.0160874 0)
(-0.0992108 0.00843463 0)
(-0.101086 0.000368291 0)
(-0.0994183 -0.00748861 0)
(-0.0944532 -0.0145106 0)
(-0.0866906 -0.0201156 0)
(-0.0768796 -0.0238195 0)
(-0.0660878 -0.025335 0)
(-0.0558606 -0.0247756 0)
(-0.0484122 -0.0230513 0)
(-0.0458571 -0.022864 0)
(-0.022276 -0.0307251 0)
(-0.00406937 0.00833411 0)
(-0.0128996 0.0231946 0)
(-0.0249379 0.0352265 0)
(-0.0405674 0.0431745 0)
(-0.0577713 0.0466431 0)
(-0.0748875 0.0458262 0)
(-0.0906002 0.0412512 0)
(-0.103863 0.0336143 0)
(-0.113867 0.0236967 0)
(-0.120057 0.0123475 0)
(-0.12213 0.000427171 0)
(-0.120038 -0.0111712 0)
(-0.11404 -0.0215204 0)
(-0.1047 -0.0297015 0)
(-0.0929126 -0.0348639 0)
(-0.0800936 -0.0363099 0)
(-0.0686478 -0.0336296 0)
(-0.0631807 -0.0268745 0)
(-0.0756303 -0.0168247 0)
(-0.0414547 -0.00548605 0)
(-0.00506775 0.0130674 0)
(-0.0159116 0.0344327 0)
(-0.0303467 0.0507667 0)
(-0.0487939 0.0610784 0)
(-0.0688045 0.0651676 0)
(-0.0884559 0.0634641 0)
(-0.106299 0.0567603 0)
(-0.121227 0.0460209 0)
(-0.132387 0.0322879 0)
(-0.139208 0.0166812 0)
(-0.14138 0.000326487 0)
(-0.138812 -0.0156145 0)
(-0.131706 -0.029908 0)
(-0.12057 -0.0412717 0)
(-0.106214 -0.0484358 0)
(-0.0898703 -0.0502155 0)
(-0.0734251 -0.0455688 0)
(-0.059745 -0.0335817 0)
(-0.0519652 -0.0130586 0)
(-0.0242481 0.01873 0)
(-0.00608035 0.018787 0)
(-0.0189404 0.0477741 0)
(-0.0357132 0.0689357 0)
(-0.0568451 0.0817071 0)
(-0.0794506 0.0862251 0)
(-0.101361 0.083276 0)
(-0.121026 0.0740063 0)
(-0.137328 0.0597019 0)
(-0.149407 0.0416805 0)
(-0.156701 0.0213244 0)
(-0.158914 1.17012e-05 0)
(-0.155908 -0.0208513 0)
(-0.14778 -0.0397609 0)
(-0.134912 -0.0551142 0)
(-0.11798 -0.0652832 0)
(-0.0980417 -0.0687361 0)
(-0.0767421 -0.064213 0)
(-0.0565665 -0.0510324 0)
(-0.0402071 -0.0294716 0)
(-0.0164303 -0.00249115 0)
(-0.00714817 0.0255167 0)
(-0.0220872 0.06321 0)
(-0.0411475 0.0896458 0)
(-0.0647904 0.104879 0)
(-0.0896966 0.109554 0)
(-0.113483 0.104952 0)
(-0.134551 0.0926747 0)
(-0.151839 0.0743863 0)
(-0.164545 0.0516927 0)
(-0.172143 0.0262041 0)
(-0.174383 -0.000485146 0)
(-0.171089 -0.0267596 0)
(-0.162237 -0.0508908 0)
(-0.148049 -0.0709943 0)
(-0.129035 -0.08509 0)
(-0.106109 -0.0912309 0)
(-0.0808798 -0.0877311 0)
(-0.0559877 -0.0735928 0)
(-0.0349167 -0.0489293 0)
(-0.0128577 -0.0159369 0)
(-0.0083098 0.0333165 0)
(-0.0254405 0.0807537 0)
(-0.0467171 0.112777 0)
(-0.0726003 0.130322 0)
(-0.0993564 0.134758 0)
(-0.124448 0.12803 0)
(-0.146303 0.112303 0)
(-0.164014 0.0896742 0)
(-0.176928 0.0620548 0)
(-0.184614 0.0312306 0)
(-0.186884 -0.00105824 0)
(-0.183551 -0.0330454 0)
(-0.174468 -0.0628309 0)
(-0.159663 -0.0882863 0)
(-0.13943 -0.107059 0)
(-0.11449 -0.116674 0)
(-0.0864259 -0.114752 0)
(-0.0581237 -0.099481 0)
(-0.033893 -0.070101 0)
(-0.011725 -0.0273442 0)
(-0.00960227 0.0422789 0)
(-0.0290743 0.100414 0)
(-0.0524315 0.138125 0)
(-0.0801104 0.157594 0)
(-0.10801 0.161212 0)
(-0.133549 0.1518 0)
(-0.155296 0.1322 0)
(-0.172608 0.104974 0)
(-0.185105 0.0723525 0)
(-0.192545 0.0362424 0)
(-0.194829 -0.00157216 0)
(-0.191773 -0.0392738 0)
(-0.183117 -0.0748732 0)
(-0.16866 -0.10606 0)
(-0.148396 -0.130112 0)
(-0.122735 -0.143937 0)
(-0.0930818 -0.144261 0)
(-0.0624285 -0.128048 0)
(-0.0356854 -0.0931882 0)
(-0.012038 -0.0387122 0)
(-0.0110592 0.0525208 0)
(-0.033038 0.122153 0)
(-0.0582098 0.165322 0)
(-0.0869602 0.185988 0)
(-0.114915 0.187958 0)
(-0.139631 0.175202 0)
(-0.159999 0.151357 0)
(-0.175765 0.119456 0)
(-0.186946 0.0820084 0)
(-0.193617 0.0409925 0)
(-0.195818 -0.00187599 0)
(-0.193382 -0.0448745 0)
(-0.185944 -0.0860606 0)
(-0.173039 -0.123054 0)
(-0.154266 -0.152829 0)
(-0.129572 -0.171641 0)
(-0.099913 -0.175155 0)
(-0.0680771 -0.158764 0)
(-0.0392823 -0.118452 0)
(-0.0132282 -0.0510252 0)
(-0.0126953 0.0641745 0)
(-0.0373126 0.145837 0)
(-0.0637953 0.193736 0)
(-0.0924635 0.214408 0)
(-0.118848 0.213596 0)
(-0.140918 0.196724 0)
(-0.158153 0.168349 0)
(-0.170853 0.131959 0)
(-0.179525 0.0902263 0)
(-0.184667 0.0451022 0)
(-0.186546 -0.00187105 0)
(-0.18505 -0.0492262 0)
(-0.179715 -0.0952556 0)
(-0.169794 -0.137692 0)
(-0.154396 -0.173366 0)
(-0.132833 -0.197948 0)
(-0.105309 -0.205931 0)
(-0.0739522 -0.190799 0)
(-0.0438513 -0.145915 0)
(-0.0149241 -0.06485 0)
(-0.01446 0.0773749 0)
(-0.0416922 0.171155 0)
(-0.0685633 0.222314 0)
(-0.095344 0.241188 0)
(-0.117821 0.236125 0)
(-0.134763 0.214307 0)
(-0.146561 0.181261 0)
(-0.154277 0.140899 0)
(-0.158989 0.0958951 0)
(-0.161645 0.0479968 0)
(-0.162795 -0.00157044 0)
(-0.162451 -0.0517469 0)
(-0.160105 -0.101257 0)
(-0.154748 -0.148179 0)
(-0.144959 -0.189456 0)
(-0.129257 -0.220405 0)
(-0.10677 -0.234379 0)
(-0.0783912 -0.222667 0)
(-0.0484087 -0.175131 0)
(-0.0167622 -0.0804638 0)
(-0.0161165 0.092202 0)
(-0.0455053 0.197445 0)
(-0.0711333 0.249328 0)
(-0.093247 0.263815 0)
(-0.108566 0.252733 0)
(-0.117218 0.225248 0)
(-0.120803 0.187736 0)
(-0.121298 0.144366 0)
(-0.120426 0.0976357 0)
(-0.119546 0.0489049 0)
(-0.119466 -0.00110226 0)
(-0.120359 -0.0518972 0)
(-0.121754 -0.10282 0)
(-0.122489 -0.152538 0)
(-0.120704 -0.198435 0)
(-0.114088 -0.23586 0)
(-0.100421 -0.257332 0)
(-0.0786875 -0.251863 0)
(-0.0513403 -0.204893 0)
(-0.0181575 -0.0978005 0)
(-0.0169496 0.108488 0)
(-0.0469561 0.223318 0)
(-0.0685513 0.271967 0)
(-0.0818557 0.278658 0)
(-0.0856869 0.25969 0)
(-0.0822938 0.226212 0)
(-0.0747368 0.185129 0)
(-0.0658495 0.140434 0)
(-0.0578877 0.0941492 0)
(-0.0525112 0.047076 0)
(-0.0507073 -0.000674372 0)
(-0.052796 -0.0492848 0)
(-0.0584204 -0.0988374 0)
(-0.0664448 -0.14881 0)
(-0.0748315 -0.197389 0)
(-0.0806579 -0.240499 0)
(-0.0803215 -0.270463 0)
(-0.0702412 -0.274401 0)
(-0.0495709 -0.232675 0)
(-0.0179105 -0.116149 0)
(-0.0150495 0.125342 0)
(-0.0415893 0.245894 0)
(-0.0545166 0.285744 0)
(-0.0532227 0.28082 0)
(-0.0403731 0.252643 0)
(-0.0210874 0.213755 0)
(0.000100313 0.170886 0)
(0.0197669 0.127319 0)
(0.0355313 0.0842646 0)
(0.0457905 0.0417929 0)
(0.049576 -0.000640834 0)
(0.0464739 -0.0438714 0)
(0.0366339 -0.0887173 0)
(0.0209066 -0.135565 0)
(0.00107238 -0.183712 0)
(-0.0198902 -0.230272 0)
(-0.0374253 -0.268352 0)
(-0.0450846 -0.284315 0)
(-0.0369809 -0.253773 0)
(-0.0133818 -0.133545 0)
(-0.00545447 0.140073 0)
(-0.0188048 0.259471 0)
(-0.0158139 0.283832 0)
(0.00715436 0.264368 0)
(0.041518 0.227337 0)
(0.0790139 0.185348 0)
(0.114391 0.143792 0)
(0.144441 0.104575 0)
(0.167256 0.0678618 0)
(0.181723 0.0329626 0)
(0.187192 -0.00122964 0)
(0.183303 -0.036031 0)
(0.169961 -0.072804 0)
(0.147469 -0.112712 0)
(0.116806 -0.15623 0)
(0.0801253 -0.202121 0)
(0.0418142 -0.245414 0)
(0.0105302 -0.273734 0)
(-0.00134551 -0.260358 0)
(0.00150988 -0.145767 0)
(0.0252844 0.145867 0)
(0.0460383 0.253266 0)
(0.0742371 0.257005 0)
(0.124382 0.224184 0)
(0.18134 0.182396 0)
(0.235057 0.142022 0)
(0.281036 0.106078 0)
(0.317541 0.074723 0)
(0.343997 0.0470781 0)
(0.360262 0.0219054 0)
(0.36626 -0.00216772 0)
(0.361819 -0.0265953 0)
(0.34663 -0.0528994 0)
(0.320317 -0.0826089 0)
(0.282648 -0.117017 0)
(0.234027 -0.156467 0)
(0.176925 -0.198626 0)
(0.119877 -0.234765 0)
(0.081881 -0.241154 0)
(0.0421111 -0.144899 0)
(0.117906 0.131425 0)
(0.209023 0.213372 0)
(0.266661 0.198827 0)
(0.339196 0.161972 0)
(0.40848 0.12443 0)
(0.4667 0.0921808 0)
(0.512424 0.0659139 0)
(0.546369 0.0446406 0)
(0.569667 0.0270055 0)
(0.58324 0.0116864 0)
(0.587607 -0.00255102 0)
(0.582826 -0.0169072 0)
(0.568487 -0.0326195 0)
(0.543717 -0.0510083 0)
(0.50721 -0.0734353 0)
(0.457416 -0.100989 0)
(0.393552 -0.13348 0)
(0.320258 -0.166898 0)
(0.261266 -0.187334 0)
(0.152187 -0.121884 0)
(0.419996 0.0549257 0)
(0.593491 0.0876995 0)
(0.650249 0.0792909 0)
(0.708043 0.0628009 0)
(0.755015 0.0469524 0)
(0.789926 0.0338783 0)
(0.814733 0.0236262 0)
(0.831603 0.01563 0)
(0.842191 0.009235 0)
(0.84756 0.00385025 0)
(0.848248 -0.00104334 0)
(0.844348 -0.00592836 0)
(0.835543 -0.0112895 0)
(0.821088 -0.0176445 0)
(0.799716 -0.0255524 0)
(0.769521 -0.0355441 0)
(0.728065 -0.0478377 0)
(0.674445 -0.061523 0)
(0.633101 -0.0728026 0)
(0.475448 -0.0504371 0)
)
;

boundaryField
{
    movingWall
    {
        type            fixedValue;
        value           uniform (1 0 0);
    }
    fixedWalls
    {
        type            noSlip;
    }
    frontAndBack
    {
        type            empty;
    }
}


// ************************************************************************* //
