/*--------------------------------*- C++ -*----------------------------------*\
| =========                 |                                                 |
| \\      /  F ield         | OpenFOAM: The Open Source CFD Toolbox           |
|  \\    /   O peration     | Version:  v2012                                 |
|   \\  /    A nd           | Website:  www.openfoam.com                      |
|    \\/     M anipulation  |                                                 |
\*---------------------------------------------------------------------------*/
FoamFile
{
    version     2.0;
    format      ascii;
    class       volScalarField;
    location    "0.3";
    object      p;
}
// * * * * * * * * * * * * * * * * * * * * * * * * * * * * * * * * * * * * * //

dimensions      [0 2 -2 0 0 0 0];


internalField   nonuniform List<scalar> 
400
(
-0.539709
-0.542486
-0.546465
-0.549321
-0.549736
-0.54721
-0.541605
-0.533186
-0.522474
-0.510064
-0.496757
-0.483555
-0.471336
-0.460759
-0.452487
-0.447162
-0.445095
-0.445811
-0.447448
-0.445763
-0.537041
-0.539861
-0.544396
-0.547631
-0.548222
-0.545807
-0.540369
-0.532145
-0.521671
-0.509618
-0.496714
-0.483821
-0.47183
-0.461448
-0.453317
-0.44812
-0.446355
-0.447626
-0.449255
-0.443492
-0.533031
-0.535685
-0.540658
-0.54409
-0.544755
-0.542447
-0.537302
-0.529627
-0.519895
-0.508715
-0.496726
-0.484663
-0.473323
-0.463366
-0.45544
-0.450324
-0.448648
-0.449762
-0.4489
-0.430904
-0.529983
-0.53275
-0.538582
-0.542516
-0.543362
-0.541141
-0.536137
-0.528718
-0.519338
-0.508608
-0.497076
-0.485335
-0.474138
-0.464179
-0.456107
-0.450635
-0.448141
-0.446892
-0.437145
-0.383954
-0.529571
-0.532641
-0.539544
-0.54416
-0.545217
-0.542928
-0.537757
-0.530157
-0.520559
-0.50964
-0.497916
-0.485842
-0.474158
-0.463688
-0.455129
-0.449003
-0.444948
-0.438344
-0.405632
-0.21371
-0.53299
-0.536404
-0.544393
-0.549642
-0.550775
-0.54815
-0.542425
-0.534182
-0.523787
-0.512002
-0.499387
-0.48631
-0.473521
-0.462066
-0.452945
-0.447074
-0.445133
-0.445673
-0.438454
-0.386277
-0.54136
-0.544998
-0.553917
-0.559572
-0.560501
-0.557169
-0.550427
-0.541037
-0.529264
-0.51593
-0.501678
-0.486858
-0.47223
-0.459035
-0.448598
-0.442258
-0.441426
-0.445916
-0.450246
-0.434074
-0.555855
-0.559514
-0.569068
-0.574746
-0.575042
-0.570522
-0.562196
-0.551057
-0.537263
-0.521649
-0.504938
-0.487521
-0.470199
-0.45433
-0.441473
-0.433346
-0.431884
-0.437472
-0.446612
-0.443192
-0.577884
-0.581278
-0.591012
-0.59612
-0.595139
-0.588775
-0.578164
-0.564542
-0.54799
-0.52932
-0.509283
-0.488334
-0.467343
-0.447752
-0.431307
-0.420037
-0.416257
-0.420888
-0.431321
-0.432279
-0.609207
-0.611887
-0.621067
-0.624683
-0.62145
-0.612323
-0.598566
-0.581596
-0.561479
-0.538955
-0.514742
-0.489333
-0.463647
-0.43917
-0.417797
-0.401824
-0.393879
-0.395569
-0.404749
-0.406126
-0.652034
-0.653235
-0.660632
-0.66135
-0.654466
-0.641329
-0.623397
-0.602132
-0.577644
-0.550534
-0.521368
-0.490607
-0.459158
-0.428484
-0.400579
-0.377982
-0.36359
-0.359822
-0.365235
-0.364682
-0.709111
-0.707594
-0.711211
-0.706951
-0.694522
-0.67578
-0.65248
-0.625922
-0.59628
-0.563972
-0.529254
-0.492394
-0.454146
-0.41583
-0.379418
-0.347665
-0.323867
-0.311301
-0.309787
-0.305198
-0.783941
-0.777867
-0.774576
-0.762243
-0.741665
-0.715266
-0.685125
-0.652206
-0.616608
-0.578511
-0.537779
-0.494287
-0.448395
-0.401082
-0.354119
-0.310289
-0.273288
-0.247346
-0.234403
-0.22306
-0.881191
-0.867905
-0.852791
-0.827615
-0.795106
-0.758305
-0.719393
-0.678993
-0.636846
-0.592592
-0.545578
-0.495169
-0.441108
-0.383755
-0.324388
-0.265423
-0.210581
-0.164984
-0.133923
-0.112068
-1.00707
-0.982569
-0.947711
-0.902295
-0.85244
-0.801897
-0.75221
-0.703397
-0.654637
-0.604589
-0.551691
-0.494578
-0.432234
-0.36418
-0.290792
-0.213475
-0.135128
-0.0613156
-0.00225161
0.0350066
-1.16915
-1.1273
-1.0601
-0.983574
-0.909347
-0.841467
-0.779854
-0.722543
-0.667484
-0.61229
-0.55443
-0.491623
-0.421859
-0.343452
-0.255234
-0.156614
-0.0483585
0.0646001
0.165497
0.22428
-1.37484
-1.30692
-1.18851
-1.06632
-0.959678
-0.870254
-0.795254
-0.730179
-0.670635
-0.61249
-0.552005
-0.485893
-0.411005
-0.324084
-0.221688
-0.100099
0.04376
0.207927
0.368866
0.457291
-1.62629
-1.52156
-1.32609
-1.14069
-0.993419
-0.881033
-0.794061
-0.723629
-0.662385
-0.604273
-0.544321
-0.478231
-0.401648
-0.309518
-0.195685
-0.0525046
0.128743
0.353321
0.595539
0.724063
-1.90511
-1.75384
-1.45503
-1.19612
-1.00655
-0.872834
-0.776974
-0.704518
-0.644731
-0.589646
-0.533186
-0.470177
-0.39518
-0.30157
-0.180867
-0.0218262
0.19062
0.473369
0.810893
0.986862
-2.17242
-1.98284
-1.57656
-1.25319
-1.02874
-0.876686
-0.771744
-0.695323
-0.634334
-0.579478
-0.523811
-0.461374
-0.385837
-0.289571
-0.162885
0.00759742
0.241316
0.564752
0.986464
1.19723
)
;

boundaryField
{
    movingWall
    {
        type            zeroGradient;
    }
    fixedWalls
    {
        type            zeroGradient;
    }
    frontAndBack
    {
        type            empty;
    }
}


// ************************************************************************* //
