/*--------------------------------*- C++ -*----------------------------------*\
| =========                 |                                                 |
| \\      /  F ield         | OpenFOAM: The Open Source CFD Toolbox           |
|  \\    /   O peration     | Version:  v2012                                 |
|   \\  /    A nd           | Website:  www.openfoam.com                      |
|    \\/     M anipulation  |                                                 |
\*---------------------------------------------------------------------------*/
FoamFile
{
    version     2.0;
    format      ascii;
    class       surfaceScalarField;
    location    "0.3";
    object      phi;
}
// * * * * * * * * * * * * * * * * * * * * * * * * * * * * * * * * * * * * * //

dimensions      [0 3 -1 0 0 0 0];
oriented        oriented;


internalField   nonuniform List<scalar> 
760
(
-1.88064e-08
1.65477e-08
-6.69957e-08
1.01293e-07
-1.60771e-07
1.94277e-07
-2.92029e-07
2.65748e-07
-4.42788e-07
3.0467e-07
-5.95684e-07
3.09709e-07
-7.35842e-07
2.84678e-07
-8.51544e-07
2.34951e-07
-9.34348e-07
1.66915e-07
-9.78068e-07
8.77753e-08
-9.79592e-07
3.73475e-09
-9.4038e-07
-7.95362e-08
-8.65288e-07
-1.55298e-07
-7.60743e-07
-2.16783e-07
-6.35772e-07
-2.58925e-07
-5.03837e-07
-2.78748e-07
-3.81046e-07
-2.76145e-07
-2.77815e-07
-2.5558e-07
-1.63026e-07
-2.23361e-07
-1.61599e-07
-1.11133e-07
6.41772e-08
-2.77614e-07
2.64262e-07
-5.34914e-07
4.63799e-07
-8.68965e-07
6.1156e-07
-1.24086e-06
6.8867e-07
-1.61232e-06
6.93468e-07
-1.95028e-06
6.33918e-07
-2.22768e-06
5.21914e-07
-2.42479e-06
3.70845e-07
-2.52904e-06
1.954e-07
-2.53465e-06
9.45575e-09
-2.44405e-06
-1.73711e-07
-2.268e-06
-3.39561e-07
-2.02345e-06
-4.73617e-07
-1.73337e-06
-5.64604e-07
-1.42786e-06
-6.07006e-07
-1.13836e-06
-6.04565e-07
-8.74545e-07
-5.7449e-07
-5.27376e-07
-5.42216e-07
-4.60567e-07
-2.21262e-07
1.65329e-07
-5.10994e-07
5.36424e-07
-9.1811e-07
8.70707e-07
-1.42452e-06
1.10736e-06
-1.97547e-06
1.22336e-06
-2.5179e-06
1.21887e-06
-3.00665e-06
1.10733e-06
-3.40535e-06
9.08487e-07
-3.68739e-06
6.44457e-07
-3.83614e-06
3.39525e-07
-3.84446e-06
1.75494e-08
-3.71583e-06
-2.98086e-07
-3.46533e-06
-5.82258e-07
-3.11847e-06
-8.09592e-07
-2.7114e-06
-9.59586e-07
-2.29221e-06
-1.02242e-06
-1.911e-06
-1.00673e-06
-1.57385e-06
-9.52047e-07
-1.01143e-06
-9.44541e-07
-1.05114e-06
-3.30479e-07
3.23145e-07
-7.39277e-07
9.27669e-07
-1.28694e-06
1.42948e-06
-1.94973e-06
1.76873e-06
-2.65725e-06
1.92297e-06
-3.34446e-06
1.89718e-06
-3.95757e-06
1.71287e-06
-4.45396e-06
1.39956e-06
-4.8027e-06
9.89743e-07
-4.98516e-06
5.19425e-07
-4.99354e-06
2.47143e-08
-4.83129e-06
-4.5864e-07
-4.51635e-06
-8.922e-07
-4.08266e-06
-1.23586e-06
-3.58226e-06
-1.4542e-06
-3.08956e-06
-1.52359e-06
-2.69427e-06
-1.43995e-06
-2.43574e-06
-1.2329e-06
-1.71714e-06
-9.89963e-07
-8.5571e-07
-4.35377e-07
5.33225e-07
-9.5794e-07
1.43059e-06
-1.63866e-06
2.12998e-06
-2.44714e-06
2.58153e-06
-3.29711e-06
2.76966e-06
-4.11232e-06
2.70825e-06
-4.83243e-06
2.43001e-06
-5.41075e-06
1.97675e-06
-5.81353e-06
1.39251e-06
-6.02118e-06
7.25773e-07
-6.02543e-06
2.61457e-08
-5.82828e-06
-6.56689e-07
-5.44773e-06
-1.26972e-06
-4.92333e-06
-1.75629e-06
-4.32138e-06
-2.0615e-06
-3.74729e-06
-2.1381e-06
-3.36775e-06
-1.95031e-06
-3.47092e-06
-1.47944e-06
-2.81679e-06
-7.21685e-07
2.88075e-07
-5.37653e-07
7.92623e-07
-1.17021e-06
2.03934e-06
-1.97799e-06
2.96385e-06
-2.9233e-06
3.5343e-06
-3.90416e-06
3.74886e-06
-4.83375e-06
3.63564e-06
-5.64679e-06
3.24208e-06
-6.29461e-06
2.62486e-06
-6.74172e-06
1.84088e-06
-6.96777e-06
9.51015e-07
-6.96384e-06
1.80901e-08
-6.72886e-06
-8.94144e-07
-6.27643e-06
-1.71831e-06
-5.64264e-06
-2.38219e-06
-4.88911e-06
-2.81215e-06
-4.10646e-06
-2.93859e-06
-3.41041e-06
-2.70138e-06
-2.87588e-06
-2.06024e-06
-1.92478e-06
-1.00012e-06
3.79375e-07
-6.4081e-07
1.10136e-06
-1.38159e-06
2.75214e-06
-2.31079e-06
3.92591e-06
-3.38336e-06
4.61777e-06
-4.48236e-06
4.8474e-06
-5.51155e-06
4.66368e-06
-6.40248e-06
4.13293e-06
-7.1069e-06
3.32917e-06
-7.5892e-06
2.32352e-06
-7.82853e-06
1.18873e-06
-7.81523e-06
-7.70605e-10
-7.54467e-06
-1.1687e-06
-7.02394e-06
-2.23467e-06
-6.28151e-06
-3.11277e-06
-5.37036e-06
-3.71309e-06
-4.3704e-06
-3.94721e-06
-3.38366e-06
-3.73863e-06
-2.48757e-06
-3.04307e-06
-1.44749e-06
-1.87777e-06
-4.27547e-07
-7.48039e-07
1.46183e-06
-1.59685e-06
3.56942e-06
-2.64098e-06
5.01098e-06
-3.82819e-06
5.82001e-06
-5.028e-06
6.04742e-06
-6.13706e-06
5.77094e-06
-7.08617e-06
5.08088e-06
-7.8305e-06
4.07073e-06
-8.33681e-06
2.82689e-06
-8.58487e-06
1.43291e-06
-8.56452e-06
-2.78863e-08
-8.26796e-06
-1.46981e-06
-7.69576e-06
-2.80207e-06
-6.86748e-06
-3.92656e-06
-5.82706e-06
-4.73728e-06
-4.64939e-06
-5.12464e-06
-3.44211e-06
-4.98736e-06
-2.32087e-06
-4.25263e-06
-1.22565e-06
-2.91051e-06
-1.05851e-06
-8.62062e-07
1.87785e-06
-1.81948e-06
4.49111e-06
-2.96953e-06
6.20965e-06
-4.25267e-06
7.12143e-06
-5.52739e-06
7.32116e-06
-6.68715e-06
6.92545e-06
-7.66583e-06
6.05467e-06
-8.42572e-06
4.82344e-06
-8.93964e-06
3.3337e-06
-9.19033e-06
1.67773e-06
-9.16804e-06
-5.61968e-08
-8.86236e-06
-1.77769e-06
-8.26741e-06
-3.38974e-06
-7.39298e-06
-4.78444e-06
-6.27256e-06
-5.83915e-06
-4.97497e-06
-6.41826e-06
-3.61379e-06
-6.38359e-06
-2.33732e-06
-5.61118e-06
-1.17152e-06
-4.03073e-06
-1.63755e-06
-9.85482e-07
2.35371e-06
-2.05156e-06
5.5145e-06
-3.29301e-06
7.50509e-06
-4.64305e-06
8.4911e-06
-5.95302e-06
8.62773e-06
-7.1195e-06
8.08208e-06
-8.08538e-06
7.01141e-06
-8.82494e-06
5.55245e-06
-9.32169e-06
3.82149e-06
-9.56482e-06
1.91621e-06
-9.54678e-06
-7.54795e-08
-9.25524e-06
-2.06482e-06
-8.67761e-06
-3.95466e-06
-7.81181e-06
-5.63165e-06
-6.67689e-06
-6.95781e-06
-5.3286e-06
-7.76754e-06
-3.87683e-06
-7.8743e-06
-2.48718e-06
-7.08491e-06
-1.22648e-06
-5.24303e-06
-2.2329e-06
-1.12028e-06
2.89361e-06
-2.29218e-06
6.63285e-06
-3.60012e-06
8.87044e-06
-4.97162e-06
9.88312e-06
-6.25732e-06
9.90891e-06
-7.36609e-06
9.17858e-06
-8.2584e-06
7.89251e-06
-8.92665e-06
6.20978e-06
-9.37044e-06
4.25758e-06
-9.58984e-06
2.13423e-06
-9.5817e-06
-7.88497e-08
-9.33261e-06
-2.30223e-06
-8.82261e-06
-4.4466e-06
-8.03486e-06
-6.40008e-06
-6.96783e-06
-8.01409e-06
-5.65375e-06
-9.09314e-06
-4.18316e-06
-9.39408e-06
-2.71983e-06
-8.63785e-06
-1.34865e-06
-6.55306e-06
-2.8829e-06
-1.26508e-06
3.50142e-06
-2.53253e-06
7.83273e-06
-3.86489e-06
1.02637e-05
-5.1882e-06
1.12295e-05
-6.36368e-06
1.1081e-05
-7.32516e-06
1.01274e-05
-8.06161e-06
8.616e-06
-8.59054e-06
6.72731e-06
-8.93289e-06
4.59306e-06
-9.10427e-06
2.30503e-06
-9.10881e-06
-6.87106e-08
-8.93316e-06
-2.46581e-06
-8.54968e-06
-4.81374e-06
-7.92391e-06
-7.01154e-06
-7.02655e-06
-8.90911e-06
-5.85385e-06
-1.02879e-05
-4.45832e-06
-1.08472e-05
-2.97908e-06
-1.02072e-05
-1.50353e-06
-7.94529e-06
-3.60593e-06
-1.4093e-06
4.17838e-06
-2.74666e-06
9.08603e-06
-4.0356e-06
1.16157e-05
-5.20809e-06
1.24277e-05
-6.15456e-06
1.20248e-05
-6.85074e-06
1.08096e-05
-7.32666e-06
9.07513e-06
-7.63216e-06
7.01804e-06
-7.81316e-06
4.76583e-06
-7.90354e-06
2.39389e-06
-7.9175e-06
-5.12674e-08
-7.84398e-06
-2.53157e-06
-7.64871e-06
-4.99946e-06
-7.27903e-06
-7.37568e-06
-6.67321e-06
-9.52207e-06
-5.77934e-06
-1.12115e-05
-4.58963e-06
-1.20961e-05
-3.18942e-06
-1.1687e-05
-1.65168e-06
-9.36963e-06
-4.40053e-06
-1.52233e-06
4.9146e-06
-2.87401e-06
1.03321e-05
-4.01386e-06
1.28109e-05
-4.88988e-06
1.33276e-05
-5.45044e-06
1.25821e-05
-5.73503e-06
1.10804e-05
-5.82656e-06
9.15068e-06
-5.81315e-06
6.99101e-06
-5.76714e-06
4.71219e-06
-5.73927e-06
2.3643e-06
-5.75358e-06
-3.46399e-08
-5.8036e-06
-2.47658e-06
-5.85241e-06
-4.9455e-06
-5.83355e-06
-7.39445e-06
-5.65449e-06
-9.71395e-06
-5.20787e-06
-1.16904e-05
-4.40207e-06
-1.29512e-05
-3.23033e-06
-1.29069e-05
-1.7295e-06
-1.07176e-05
-5.23392e-06
-1.53008e-06
5.66899e-06
-2.78144e-06
1.14473e-05
-3.60966e-06
1.36641e-05
-3.98988e-06
1.37261e-05
-3.96919e-06
1.25672e-05
-3.67759e-06
1.07854e-05
-3.25801e-06
8.72438e-06
-2.83475e-06
6.56114e-06
-2.50246e-06
4.37362e-06
-2.32345e-06
2.17935e-06
-2.32733e-06
-3.46892e-08
-2.51243e-06
-2.29204e-06
-2.84528e-06
-4.61131e-06
-3.25655e-06
-6.98578e-06
-3.63472e-06
-9.35085e-06
-3.82062e-06
-1.15327e-05
-3.62113e-06
-1.31705e-05
-2.89316e-06
-1.3611e-05
-1.617e-06
-1.17881e-05
-6.02054e-06
-1.25813e-06
6.32926e-06
-2.1776e-06
1.21941e-05
-2.4506e-06
1.38924e-05
-2.0839e-06
1.33685e-05
-1.27023e-06
1.17886e-05
-2.51404e-07
9.79993e-06
7.7171e-07
7.7217e-06
1.65504e-06
5.68699e-06
2.30058e-06
3.72779e-06
2.64709e-06
1.82527e-06
2.66494e-06
-6.21854e-08
2.35039e-06
-1.98489e-06
1.72535e-06
-3.9922e-06
8.45646e-07
-6.11754e-06
-1.80613e-07
-8.34895e-06
-1.16322e-06
-1.05747e-05
-1.80926e-06
-1.24919e-05
-1.80476e-06
-1.34601e-05
-1.07903e-06
-1.22617e-05
-6.59508e-06
-2.97703e-07
6.63958e-06
-4.35843e-07
1.21422e-05
1.78096e-07
1.30902e-05
1.54568e-06
1.1984e-05
3.30097e-06
1.01165e-05
5.10728e-06
8.10232e-06
6.73764e-06
6.18579e-06
8.05369e-06
4.43581e-06
8.97738e-06
2.83813e-06
9.46801e-06
1.34453e-06
9.50701e-06
-1.05139e-07
9.08728e-06
-1.57619e-06
8.21189e-06
-3.13597e-06
6.90523e-06
-4.84531e-06
5.24126e-06
-6.73594e-06
3.39745e-06
-8.7639e-06
1.72447e-06
-1.07252e-05
7.00712e-07
-1.20991e-05
3.5321e-07
-1.17022e-05
-6.67467e-06
2.30748e-06
6.16092e-06
3.7391e-06
1.06735e-05
5.57723e-06
1.08235e-05
8.05919e-06
9.41705e-06
1.07021e-05
7.60768e-06
1.31397e-05
5.86261e-06
1.51827e-05
4.32626e-06
1.67481e-05
3.00828e-06
1.7807e-05
1.86592e-06
1.83554e-05
8.40868e-07
1.83939e-05
-1.28066e-07
1.79152e-05
-1.10391e-06
1.69019e-05
-2.15248e-06
1.53372e-05
-3.33811e-06
1.32339e-05
-4.7097e-06
1.06956e-05
-6.27194e-06
8.03357e-06
-7.92874e-06
5.80684e-06
-9.36022e-06
3.66858e-06
-9.69032e-06
-5.89321e-06
8.88966e-06
3.95823e-06
1.29191e-05
6.62062e-06
1.5964e-05
6.4234e-06
1.91644e-05
5.39687e-06
2.21377e-05
4.23038e-06
2.4642e-05
3.17038e-06
2.66019e-05
2.2792e-06
2.80226e-05
1.54546e-06
2.89369e-05
9.33232e-07
2.93789e-05
4.01997e-07
2.9368e-05
-8.80135e-08
2.88992e-05
-5.7671e-07
2.7943e-05
-1.10549e-06
2.64521e-05
-1.7152e-06
2.43777e-05
-2.43986e-06
2.17111e-05
-3.29582e-06
1.86077e-05
-4.25744e-06
1.55671e-05
-5.19527e-06
1.1116e-05
-5.69485e-06
-3.66309e-06
2.58943e-05
3.19584e-05
3.46409e-05
3.69275e-05
3.87805e-05
4.01912e-05
4.12056e-05
4.18834e-05
4.22775e-05
4.24253e-05
4.23447e-05
4.20322e-05
4.14645e-05
4.06012e-05
3.93846e-05
3.775e-05
3.56906e-05
3.35962e-05
2.84154e-05
)
;

boundaryField
{
    movingWall
    {
        type            calculated;
        value           uniform 0;
    }
    fixedWalls
    {
        type            calculated;
        value           uniform 0;
    }
    frontAndBack
    {
        type            empty;
        value           nonuniform List<scalar> 0();
    }
}


// ************************************************************************* //
