/*--------------------------------*- C++ -*----------------------------------*\
| =========                 |                                                 |
| \\      /  F ield         | OpenFOAM: The Open Source CFD Toolbox           |
|  \\    /   O peration     | Version:  v2012                                 |
|   \\  /    A nd           | Website:  www.openfoam.com                      |
|    \\/     M anipulation  |                                                 |
\*---------------------------------------------------------------------------*/
FoamFile
{
    version     2.0;
    format      ascii;
    class       volVectorField;
    location    "0.3";
    object      U;
}
// * * * * * * * * * * * * * * * * * * * * * * * * * * * * * * * * * * * * * //

dimensions      [0 1 -1 0 0 0 0];


internalField   nonuniform List<vector> 
400
(
(-0.000119314 9.59432e-05 0)
(-0.00063294 0.000875923 0)
(-0.00204689 0.00178003 0)
(-0.00438394 0.002492 0)
(-0.00729723 0.00288846 0)
(-0.0104143 0.0029539 0)
(-0.0134131 0.00272574 0)
(-0.0160206 0.00225258 0)
(-0.0180412 0.0015988 0)
(-0.0193327 0.000839688 0)
(-0.01979 3.32144e-05 0)
(-0.0193936 -0.000769996 0)
(-0.0182216 -0.00150249 0)
(-0.01639 -0.00209571 0)
(-0.0140397 -0.00250159 0)
(-0.0113912 -0.00268933 0)
(-0.00876232 -0.00264525 0)
(-0.00647951 -0.00239075 0)
(-0.00463309 -0.00196699 0)
(-0.00188795 -0.00127468 0)
(-0.000990125 0.000565964 0)
(-0.00345521 0.00317582 0)
(-0.00764934 0.00599103 0)
(-0.0137472 0.00813791 0)
(-0.0210114 0.00929835 0)
(-0.0286232 0.00943446 0)
(-0.0358697 0.00866139 0)
(-0.0421416 0.00714547 0)
(-0.0469656 0.0050778 0)
(-0.0500259 0.00267132 0)
(-0.0511356 0.000116176 0)
(-0.0502505 -0.00241145 0)
(-0.0475117 -0.00470943 0)
(-0.0432083 -0.00657561 0)
(-0.0377299 -0.00785541 0)
(-0.031605 -0.00846059 0)
(-0.0255093 -0.00840055 0)
(-0.020025 -0.00783243 0)
(-0.0149568 -0.00696743 0)
(-0.00613817 -0.0051893 0)
(-0.0020731 0.00200112 0)
(-0.00677739 0.00739468 0)
(-0.0136624 0.0125609 0)
(-0.023062 0.0163245 0)
(-0.0339188 0.0182484 0)
(-0.0450998 0.0183043 0)
(-0.0556162 0.0166953 0)
(-0.0646496 0.0137311 0)
(-0.0715644 0.00975599 0)
(-0.0759313 0.00514469 0)
(-0.0775141 0.000262055 0)
(-0.0762641 -0.00453699 0)
(-0.0723691 -0.008873 0)
(-0.0662443 -0.0123691 0)
(-0.0584945 -0.0147287 0)
(-0.0499613 -0.0158196 0)
(-0.0417273 -0.015782 0)
(-0.0347127 -0.0151472 0)
(-0.0282414 -0.0147212 0)
(-0.0122157 -0.0132334 0)
(-0.00315917 0.00461203 0)
(-0.01006 0.0140623 0)
(-0.0195111 0.0222673 0)
(-0.0319666 0.0279699 0)
(-0.0460226 0.0306861 0)
(-0.0602675 0.0304505 0)
(-0.073511 0.0275977 0)
(-0.084792 0.0226084 0)
(-0.0933665 0.0160223 0)
(-0.0987415 0.00843632 0)
(-0.100665 0.00043992 0)
(-0.0990764 -0.00738645 0)
(-0.094175 -0.0144173 0)
(-0.0864792 -0.0200146 0)
(-0.0768274 -0.0236547 0)
(-0.066463 -0.0250772 0)
(-0.0571193 -0.0244872 0)
(-0.0506517 -0.0229347 0)
(-0.046778 -0.0230604 0)
(-0.0219075 -0.0288122 0)
(-0.00420474 0.00831377 0)
(-0.0132103 0.0230445 0)
(-0.0251073 0.034912 0)
(-0.0404393 0.0427793 0)
(-0.0574462 0.0462326 0)
(-0.0744383 0.0454366 0)
(-0.0900545 0.0409169 0)
(-0.103243 0.0333742 0)
(-0.113187 0.0235675 0)
(-0.119354 0.0123407 0)
(-0.121493 0.000548651 0)
(-0.119524 -0.0109592 0)
(-0.113607 -0.0212706 0)
(-0.104302 -0.0294197 0)
(-0.0926311 -0.0345133 0)
(-0.0802241 -0.0358662 0)
(-0.0696675 -0.0331107 0)
(-0.0650427 -0.0263813 0)
(-0.073794 -0.0165381 0)
(-0.0388776 -0.0054162 0)
(-0.00522714 0.0130152 0)
(-0.016279 0.0341791 0)
(-0.0305296 0.0502872 0)
(-0.0485901 0.0604819 0)
(-0.0683418 0.0645537 0)
(-0.0878248 0.0628934 0)
(-0.105525 0.0562834 0)
(-0.120346 0.0456958 0)
(-0.131438 0.032133 0)
(-0.138231 0.0166903 0)
(-0.14048 0.000497178 0)
(-0.138074 -0.0153084 0)
(-0.131081 -0.0295181 0)
(-0.119976 -0.0408319 0)
(-0.105729 -0.0479468 0)
(-0.0898351 -0.0496578 0)
(-0.0744234 -0.0449016 0)
(-0.0619931 -0.0327964 0)
(-0.0530422 -0.0123293 0)
(-0.0239492 0.0169392 0)
(-0.00626654 0.0186897 0)
(-0.0193659 0.0473945 0)
(-0.0358978 0.0682669 0)
(-0.0565337 0.0808901 0)
(-0.0788009 0.0854007 0)
(-0.100493 0.0825322 0)
(-0.119969 0.0733999 0)
(-0.136131 0.0592987 0)
(-0.148146 0.0415022 0)
(-0.155423 0.0213503 0)
(-0.157719 0.000226427 0)
(-0.15489 -0.0204573 0)
(-0.146896 -0.0392145 0)
(-0.134061 -0.0544556 0)
(-0.117199 -0.0645393 0)
(-0.0976151 -0.067886 0)
(-0.077201 -0.0631538 0)
(-0.0581454 -0.0496132 0)
(-0.0413573 -0.0276755 0)
(-0.0165424 -0.00176419 0)
(-0.00735912 0.0253647 0)
(-0.0225625 0.0626911 0)
(-0.0413114 0.0887696 0)
(-0.0643279 0.10382 0)
(-0.0887995 0.108495 0)
(-0.11232 0.104015 0)
(-0.133162 0.0919173 0)
(-0.150285 0.0738681 0)
(-0.162935 0.0514386 0)
(-0.170537 0.026199 0)
(-0.172857 -0.000257251 0)
(-0.169723 -0.0262905 0)
(-0.160995 -0.0501725 0)
(-0.146835 -0.0700554 0)
(-0.127864 -0.0839845 0)
(-0.105218 -0.0900024 0)
(-0.0807578 -0.0863913 0)
(-0.0569265 -0.0721098 0)
(-0.0359083 -0.0474355 0)
(-0.0131176 -0.0153377 0)
(-0.00853681 0.0331083 0)
(-0.0259457 0.0800857 0)
(-0.0468334 0.11167 0)
(-0.0719478 0.12898 0)
(-0.0981588 0.133401 0)
(-0.122937 0.126823 0)
(-0.144549 0.111318 0)
(-0.162084 0.088961 0)
(-0.174945 0.0616369 0)
(-0.182641 0.0311175 0)
(-0.184972 -0.000858203 0)
(-0.181749 -0.032502 0)
(-0.172745 -0.0619101 0)
(-0.157951 -0.0870071 0)
(-0.137768 -0.105507 0)
(-0.113135 -0.114983 0)
(-0.0858641 -0.113103 0)
(-0.0586877 -0.0979955 0)
(-0.0348052 -0.068985 0)
(-0.0120557 -0.0270026 0)
(-0.00983342 0.0420057 0)
(-0.0295859 0.0995586 0)
(-0.0524767 0.136717 0)
(-0.0792436 0.155877 0)
(-0.106478 0.159445 0)
(-0.131642 0.150195 0)
(-0.153138 0.130869 0)
(-0.170278 0.103977 0)
(-0.18272 0.0717112 0)
(-0.190148 0.0359918 0)
(-0.192445 -0.00138967 0)
(-0.189426 -0.0386058 0)
(-0.180784 -0.0736794 0)
(-0.166321 -0.10437 0)
(-0.146152 -0.128059 0)
(-0.120924 -0.141747 0)
(-0.0922203 -0.142241 0)
(-0.062853 -0.126452 0)
(-0.0366343 -0.092244 0)
(-0.0124248 -0.0384994 0)
(-0.0112803 0.0521426 0)
(-0.0335309 0.121021 0)
(-0.0581562 0.163487 0)
(-0.0858485 0.183767 0)
(-0.113016 0.185664 0)
(-0.137277 0.173088 0)
(-0.157367 0.149588 0)
(-0.172969 0.118121 0)
(-0.184097 0.0811485 0)
(-0.190721 0.0406565 0)
(-0.192873 -0.00162951 0)
(-0.190395 -0.0439871 0)
(-0.182909 -0.0845071 0)
(-0.169995 -0.120896 0)
(-0.151399 -0.150253 0)
(-0.127314 -0.168955 0)
(-0.0988357 -0.172731 0)
(-0.0684908 -0.156945 0)
(-0.0403022 -0.117477 0)
(-0.0136439 -0.0508166 0)
(-0.012875 0.0636017 0)
(-0.0377281 0.144292 0)
(-0.063573 0.191331 0)
(-0.0910228 0.211558 0)
(-0.116505 0.210692 0)
(-0.138042 0.194055 0)
(-0.154964 0.166113 0)
(-0.167501 0.13027 0)
(-0.176121 0.0891545 0)
(-0.181195 0.0447128 0)
(-0.182976 -0.00152448 0)
(-0.181376 -0.0481021 0)
(-0.17595 -0.093357 0)
(-0.166037 -0.135108 0)
(-0.150919 -0.17031 0)
(-0.130143 -0.194771 0)
(-0.104011 -0.203032 0)
(-0.0743216 -0.188569 0)
(-0.0448416 -0.144645 0)
(-0.0152995 -0.0644992 0)
(-0.0145122 0.0764551 0)
(-0.0418598 0.169017 0)
(-0.0680066 0.219217 0)
(-0.0934173 0.237622 0)
(-0.114906 0.232548 0)
(-0.131276 0.211041 0)
(-0.142753 0.178527 0)
(-0.150313 0.138823 0)
(-0.154973 0.0945678 0)
(-0.157553 0.0474885 0)
(-0.158588 -0.00122395 0)
(-0.158112 -0.0505303 0)
(-0.155648 -0.0991927 0)
(-0.150301 -0.145354 0)
(-0.140861 -0.186054 0)
(-0.126068 -0.216744 0)
(-0.105105 -0.230858 0)
(-0.0784797 -0.219719 0)
(-0.0490971 -0.173167 0)
(-0.0169702 -0.079738 0)
(-0.0158542 0.0906802 0)
(-0.045039 0.194424 0)
(-0.0699213 0.245411 0)
(-0.0906329 0.259486 0)
(-0.104962 0.248442 0)
(-0.113055 0.221345 0)
(-0.116346 0.184478 0)
(-0.116716 0.141899 0)
(-0.11581 0.0960652 0)
(-0.114875 0.0482669 0)
(-0.114695 -0.000826748 0)
(-0.115448 -0.0507323 0)
(-0.116696 -0.100786 0)
(-0.1174 -0.149673 0)
(-0.115942 -0.194829 0)
(-0.110238 -0.231717 0)
(-0.0980768 -0.252987 0)
(-0.078006 -0.247759 0)
(-0.0512072 -0.201619 0)
(-0.0179729 -0.0962831 0)
(-0.0160515 0.105904 0)
(-0.0451519 0.21886 0)
(-0.0661057 0.267024 0)
(-0.0782808 0.273619 0)
(-0.0813145 0.254843 0)
(-0.0774533 0.22187 0)
(-0.0696504 0.18155 0)
(-0.0606702 0.137741 0)
(-0.0527199 0.0924223 0)
(-0.0473784 0.0463051 0)
(-0.0455595 -0.000558848 0)
(-0.0475336 -0.0483309 0)
(-0.0529636 -0.0970344 0)
(-0.0608476 -0.146105 0)
(-0.0694146 -0.193729 0)
(-0.0759742 -0.235898 0)
(-0.0768507 -0.265061 0)
(-0.0679945 -0.268518 0)
(-0.0477317 -0.227086 0)
(-0.0169483 -0.113074 0)
(-0.0130331 0.120856 0)
(-0.037292 0.239031 0)
(-0.0498121 0.279539 0)
(-0.0482119 0.275425 0)
(-0.0351439 0.247847 0)
(-0.0156651 0.209548 0)
(0.00560893 0.167426 0)
(0.0252595 0.124704 0)
(0.040942 0.0825225 0)
(0.0510814 0.0408691 0)
(0.0548022 -0.00082872 0)
(0.0517953 -0.0433506 0)
(0.0422203 -0.0874179 0)
(0.0267939 -0.133326 0)
(0.00703198 -0.180305 0)
(-0.0142565 -0.225411 0)
(-0.0322723 -0.26176 0)
(-0.040098 -0.275921 0)
(-0.0320925 -0.24444 0)
(-0.0110686 -0.127748 0)
(-0.00166157 0.132314 0)
(-0.0102466 0.248735 0)
(-0.00718715 0.276157 0)
(0.014311 0.259315 0)
(0.0475162 0.223698 0)
(0.0845225 0.18245 0)
(0.119769 0.141442 0)
(0.149737 0.102775 0)
(0.172411 0.0665892 0)
(0.186685 0.0321416 0)
(0.192036 -0.00165869 0)
(0.188245 -0.036045 0)
(0.175247 -0.0722701 0)
(0.153229 -0.111375 0)
(0.12298 -0.153653 0)
(0.0866702 -0.197578 0)
(0.0492279 -0.237917 0)
(0.0197508 -0.262485 0)
(0.0082777 -0.246026 0)
(0.0058507 -0.136055 0)
(0.0314477 0.133269 0)
(0.0608517 0.236952 0)
(0.0887124 0.24745 0)
(0.134377 0.220044 0)
(0.187991 0.180961 0)
(0.240092 0.141643 0)
(0.285495 0.105989 0)
(0.321812 0.0746571 0)
(0.34811 0.0469361 0)
(0.364172 0.0216396 0)
(0.370045 -0.00254685 0)
(0.36571 -0.0270025 0)
(0.350896 -0.0531688 0)
(0.325178 -0.0824376 0)
(0.288312 -0.115785 0)
(0.241042 -0.152978 0)
(0.186782 -0.191093 0)
(0.134561 -0.221478 0)
(0.0977125 -0.222062 0)
(0.0490305 -0.130932 0)
(0.125836 0.113168 0)
(0.22975 0.189988 0)
(0.287015 0.185489 0)
(0.351546 0.156638 0)
(0.415032 0.123346 0)
(0.470476 0.0928611 0)
(0.515203 0.0670608 0)
(0.548871 0.0456739 0)
(0.572032 0.0277007 0)
(0.585445 0.0119951 0)
(0.589712 -0.00257577 0)
(0.585007 -0.0171541 0)
(0.570963 -0.0329303 0)
(0.546759 -0.0510867 0)
(0.511325 -0.0726035 0)
(0.463782 -0.097899 0)
(0.404662 -0.126057 0)
(0.339644 -0.152931 0)
(0.28304 -0.165551 0)
(0.1616 -0.104796 0)
(0.425347 0.0451614 0)
(0.610426 0.0748366 0)
(0.667908 0.0714472 0)
(0.717729 0.0592366 0)
(0.759369 0.045869 0)
(0.79185 0.033954 0)
(0.815799 0.0241071 0)
(0.832425 0.0161446 0)
(0.842912 0.00962857 0)
(0.848187 0.00408473 0)
(0.848824 -0.000944767 0)
(0.844965 -0.00591433 0)
(0.836324 -0.0112893 0)
(0.822258 -0.0175213 0)
(0.801789 -0.0249909 0)
(0.773596 -0.0339337 0)
(0.736404 -0.044241 0)
(0.69122 -0.0548801 0)
(0.652629 -0.0622432 0)
(0.483988 -0.0417271 0)
)
;

boundaryField
{
    movingWall
    {
        type            fixedValue;
        value           uniform (1 0 0);
    }
    fixedWalls
    {
        type            noSlip;
    }
    frontAndBack
    {
        type            empty;
    }
}


// ************************************************************************* //
